# vtk DataFile Version 3.0
#This file was generated by the deal.II library on 2016/6/29 at 10:04:41
ASCII
DATASET UNSTRUCTURED_GRID

POINTS 1536 double
-0.57735 -0.57735 -0.57735
-0.44539 -0.633099 -0.633099
-0.633099 -0.44539 -0.633099
-0.493907 -0.493907 -0.71562
-0.44539 -0.633099 -0.633099
-0.302905 -0.673887 -0.673887
-0.493907 -0.493907 -0.71562
-0.339976 -0.528606 -0.777813
-0.633099 -0.44539 -0.633099
-0.493907 -0.493907 -0.71562
-0.673887 -0.302905 -0.673887
-0.528606 -0.339976 -0.777813
-0.493907 -0.493907 -0.71562
-0.339976 -0.528606 -0.777813
-0.528606 -0.339976 -0.777813
-0.365731 -0.365731 -0.855851
-0.302905 -0.673887 -0.673887
-0.153263 -0.698753 -0.698753
-0.339976 -0.528606 -0.777813
-0.17276 -0.550219 -0.816954
-0.153263 -0.698753 -0.698753
0 -0.707107 -0.707107
-0.17276 -0.550219 -0.816954
0 -0.55557 -0.83147
-0.339976 -0.528606 -0.777813
-0.17276 -0.550219 -0.816954
-0.365731 -0.365731 -0.855851
-0.18612 -0.380868 -0.905704
-0.17276 -0.550219 -0.816954
0 -0.55557 -0.83147
-0.18612 -0.380868 -0.905704
0 -0.382683 -0.92388
-0.673887 -0.302905 -0.673887
-0.528606 -0.339976 -0.777813
-0.698753 -0.153263 -0.698753
-0.550219 -0.17276 -0.816954
-0.528606 -0.339976 -0.777813
-0.365731 -0.365731 -0.855851
-0.550219 -0.17276 -0.816954
-0.380868 -0.18612 -0.905704
-0.698753 -0.153263 -0.698753
-0.550219 -0.17276 -0.816954
-0.707107 0 -0.707107
-0.55557 0 -0.83147
-0.550219 -0.17276 -0.816954
-0.380868 -0.18612 -0.905704
-0.55557 0 -0.83147
-0.382683 0 -0.92388
-0.365731 -0.365731 -0.855851
-0.18612 -0.380868 -0.905704
-0.380868 -0.18612 -0.905704
-0.194256 -0.194256 -0.961524
-0.18612 -0.380868 -0.905704
0 -0.382683 -0.92388
-0.194256 -0.194256 -0.961524
0 -0.19509 -0.980785
-0.380868 -0.18612 -0.905704
-0.194256 -0.194256 -0.961524
-0.382683 0 -0.92388
-0.19509 0 -0.980785
-0.194256 -0.194256 -0.961524
0 -0.19509 -0.980785
-0.19509 0 -0.980785
0 0 -1
0 -0.707107 -0.707107
0.153263 -0.698753 -0.698753
0 -0.55557 -0.83147
0.17276 -0.550219 -0.816954
0.153263 -0.698753 -0.698753
0.302905 -0.673887 -0.673887
0.17276 -0.550219 -0.816954
0.339976 -0.528606 -0.777813
0 -0.55557 -0.83147
0.17276 -0.550219 -0.816954
0 -0.382683 -0.92388
0.18612 -0.380868 -0.905704
0.17276 -0.550219 -0.816954
0.339976 -0.528606 -0.777813
0.18612 -0.380868 -0.905704
0.365731 -0.365731 -0.855851
0.302905 -0.673887 -0.673887
0.44539 -0.633099 -0.633099
0.339976 -0.528606 -0.777813
0.493907 -0.493907 -0.71562
0.44539 -0.633099 -0.633099
0.57735 -0.57735 -0.57735
0.493907 -0.493907 -0.71562
0.633099 -0.44539 -0.633099
0.339976 -0.528606 -0.777813
0.493907 -0.493907 -0.71562
0.365731 -0.365731 -0.855851
0.528606 -0.339976 -0.777813
0.493907 -0.493907 -0.71562
0.633099 -0.44539 -0.633099
0.528606 -0.339976 -0.777813
0.673887 -0.302905 -0.673887
0 -0.382683 -0.92388
0.18612 -0.380868 -0.905704
0 -0.19509 -0.980785
0.194256 -0.194256 -0.961524
0.18612 -0.380868 -0.905704
0.365731 -0.365731 -0.855851
0.194256 -0.194256 -0.961524
0.380868 -0.18612 -0.905704
0 -0.19509 -0.980785
0.194256 -0.194256 -0.961524
0 0 -1
0.19509 0 -0.980785
0.194256 -0.194256 -0.961524
0.380868 -0.18612 -0.905704
0.19509 0 -0.980785
0.382683 0 -0.92388
0.365731 -0.365731 -0.855851
0.528606 -0.339976 -0.777813
0.380868 -0.18612 -0.905704
0.550219 -0.17276 -0.816954
0.528606 -0.339976 -0.777813
0.673887 -0.302905 -0.673887
0.550219 -0.17276 -0.816954
0.698753 -0.153263 -0.698753
0.380868 -0.18612 -0.905704
0.550219 -0.17276 -0.816954
0.382683 0 -0.92388
0.55557 0 -0.83147
0.550219 -0.17276 -0.816954
0.698753 -0.153263 -0.698753
0.55557 0 -0.83147
0.707107 0 -0.707107
-0.707107 0 -0.707107
-0.55557 0 -0.83147
-0.698753 0.153263 -0.698753
-0.550219 0.17276 -0.816954
-0.55557 0 -0.83147
-0.382683 0 -0.92388
-0.550219 0.17276 -0.816954
-0.380868 0.18612 -0.905704
-0.698753 0.153263 -0.698753
-0.550219 0.17276 -0.816954
-0.673887 0.302905 -0.673887
-0.528606 0.339976 -0.777813
-0.550219 0.17276 -0.816954
-0.380868 0.18612 -0.905704
-0.528606 0.339976 -0.777813
-0.365731 0.365731 -0.855851
-0.382683 0 -0.92388
-0.19509 0 -0.980785
-0.380868 0.18612 -0.905704
-0.194256 0.194256 -0.961524
-0.19509 0 -0.980785
0 0 -1
-0.194256 0.194256 -0.961524
0 0.19509 -0.980785
-0.380868 0.18612 -0.905704
-0.194256 0.194256 -0.961524
-0.365731 0.365731 -0.855851
-0.18612 0.380868 -0.905704
-0.194256 0.194256 -0.961524
0 0.19509 -0.980785
-0.18612 0.380868 -0.905704
0 0.382683 -0.92388
-0.673887 0.302905 -0.673887
-0.528606 0.339976 -0.777813
-0.633099 0.44539 -0.633099
-0.493907 0.493907 -0.71562
-0.528606 0.339976 -0.777813
-0.365731 0.365731 -0.855851
-0.493907 0.493907 -0.71562
-0.339976 0.528606 -0.777813
-0.633099 0.44539 -0.633099
-0.493907 0.493907 -0.71562
-0.57735 0.57735 -0.57735
-0.44539 0.633099 -0.633099
-0.493907 0.493907 -0.71562
-0.339976 0.528606 -0.777813
-0.44539 0.633099 -0.633099
-0.302905 0.673887 -0.673887
-0.365731 0.365731 -0.855851
-0.18612 0.380868 -0.905704
-0.339976 0.528606 -0.777813
-0.17276 0.550219 -0.816954
-0.18612 0.380868 -0.905704
0 0.382683 -0.92388
-0.17276 0.550219 -0.816954
0 0.55557 -0.83147
-0.339976 0.528606 -0.777813
-0.17276 0.550219 -0.816954
-0.302905 0.673887 -0.673887
-0.153263 0.698753 -0.698753
-0.17276 0.550219 -0.816954
0 0.55557 -0.83147
-0.153263 0.698753 -0.698753
0 0.707107 -0.707107
0 0 -1
0.19509 0 -0.980785
0 0.19509 -0.980785
0.194256 0.194256 -0.961524
0.19509 0 -0.980785
0.382683 0 -0.92388
0.194256 0.194256 -0.961524
0.380868 0.18612 -0.905704
0 0.19509 -0.980785
0.194256 0.194256 -0.961524
0 0.382683 -0.92388
0.18612 0.380868 -0.905704
0.194256 0.194256 -0.961524
0.380868 0.18612 -0.905704
0.18612 0.380868 -0.905704
0.365731 0.365731 -0.855851
0.382683 0 -0.92388
0.55557 0 -0.83147
0.380868 0.18612 -0.905704
0.550219 0.17276 -0.816954
0.55557 0 -0.83147
0.707107 0 -0.707107
0.550219 0.17276 -0.816954
0.698753 0.153263 -0.698753
0.380868 0.18612 -0.905704
0.550219 0.17276 -0.816954
0.365731 0.365731 -0.855851
0.528606 0.339976 -0.777813
0.550219 0.17276 -0.816954
0.698753 0.153263 -0.698753
0.528606 0.339976 -0.777813
0.673887 0.302905 -0.673887
0 0.382683 -0.92388
0.18612 0.380868 -0.905704
0 0.55557 -0.83147
0.17276 0.550219 -0.816954
0.18612 0.380868 -0.905704
0.365731 0.365731 -0.855851
0.17276 0.550219 -0.816954
0.339976 0.528606 -0.777813
0 0.55557 -0.83147
0.17276 0.550219 -0.816954
0 0.707107 -0.707107
0.153263 0.698753 -0.698753
0.17276 0.550219 -0.816954
0.339976 0.528606 -0.777813
0.153263 0.698753 -0.698753
0.302905 0.673887 -0.673887
0.365731 0.365731 -0.855851
0.528606 0.339976 -0.777813
0.339976 0.528606 -0.777813
0.493907 0.493907 -0.71562
0.528606 0.339976 -0.777813
0.673887 0.302905 -0.673887
0.493907 0.493907 -0.71562
0.633099 0.44539 -0.633099
0.339976 0.528606 -0.777813
0.493907 0.493907 -0.71562
0.302905 0.673887 -0.673887
0.44539 0.633099 -0.633099
0.493907 0.493907 -0.71562
0.633099 0.44539 -0.633099
0.44539 0.633099 -0.633099
0.57735 0.57735 -0.57735
0.57735 -0.57735 -0.57735
0.633099 -0.633099 -0.44539
0.633099 -0.44539 -0.633099
0.71562 -0.493907 -0.493907
0.633099 -0.633099 -0.44539
0.673887 -0.673887 -0.302905
0.71562 -0.493907 -0.493907
0.777813 -0.528606 -0.339976
0.633099 -0.44539 -0.633099
0.71562 -0.493907 -0.493907
0.673887 -0.302905 -0.673887
0.777813 -0.339976 -0.528606
0.71562 -0.493907 -0.493907
0.777813 -0.528606 -0.339976
0.777813 -0.339976 -0.528606
0.855851 -0.365731 -0.365731
0.673887 -0.673887 -0.302905
0.698753 -0.698753 -0.153263
0.777813 -0.528606 -0.339976
0.816954 -0.550219 -0.17276
0.698753 -0.698753 -0.153263
0.707107 -0.707107 0
0.816954 -0.550219 -0.17276
0.83147 -0.55557 0
0.777813 -0.528606 -0.339976
0.816954 -0.550219 -0.17276
0.855851 -0.365731 -0.365731
0.905704 -0.380868 -0.18612
0.816954 -0.550219 -0.17276
0.83147 -0.55557 0
0.905704 -0.380868 -0.18612
0.92388 -0.382683 0
0.673887 -0.302905 -0.673887
0.777813 -0.339976 -0.528606
0.698753 -0.153263 -0.698753
0.816954 -0.17276 -0.550219
0.777813 -0.339976 -0.528606
0.855851 -0.365731 -0.365731
0.816954 -0.17276 -0.550219
0.905704 -0.18612 -0.380868
0.698753 -0.153263 -0.698753
0.816954 -0.17276 -0.550219
0.707107 0 -0.707107
0.83147 0 -0.55557
0.816954 -0.17276 -0.550219
0.905704 -0.18612 -0.380868
0.83147 0 -0.55557
0.92388 0 -0.382683
0.855851 -0.365731 -0.365731
0.905704 -0.380868 -0.18612
0.905704 -0.18612 -0.380868
0.961524 -0.194256 -0.194256
0.905704 -0.380868 -0.18612
0.92388 -0.382683 0
0.961524 -0.194256 -0.194256
0.980785 -0.19509 0
0.905704 -0.18612 -0.380868
0.961524 -0.194256 -0.194256
0.92388 0 -0.382683
0.980785 0 -0.19509
0.961524 -0.194256 -0.194256
0.980785 -0.19509 0
0.980785 0 -0.19509
1 0 0
0.707107 -0.707107 0
0.698753 -0.698753 0.153263
0.83147 -0.55557 0
0.816954 -0.550219 0.17276
0.698753 -0.698753 0.153263
0.673887 -0.673887 0.302905
0.816954 -0.550219 0.17276
0.777813 -0.528606 0.339976
0.83147 -0.55557 0
0.816954 -0.550219 0.17276
0.92388 -0.382683 0
0.905704 -0.380868 0.18612
0.816954 -0.550219 0.17276
0.777813 -0.528606 0.339976
0.905704 -0.380868 0.18612
0.855851 -0.365731 0.365731
0.673887 -0.673887 0.302905
0.633099 -0.633099 0.44539
0.777813 -0.528606 0.339976
0.71562 -0.493907 0.493907
0.633099 -0.633099 0.44539
0.57735 -0.57735 0.57735
0.71562 -0.493907 0.493907
0.633099 -0.44539 0.633099
0.777813 -0.528606 0.339976
0.71562 -0.493907 0.493907
0.855851 -0.365731 0.365731
0.777813 -0.339976 0.528606
0.71562 -0.493907 0.493907
0.633099 -0.44539 0.633099
0.777813 -0.339976 0.528606
0.673887 -0.302905 0.673887
0.92388 -0.382683 0
0.905704 -0.380868 0.18612
0.980785 -0.19509 0
0.961524 -0.194256 0.194256
0.905704 -0.380868 0.18612
0.855851 -0.365731 0.365731
0.961524 -0.194256 0.194256
0.905704 -0.18612 0.380868
0.980785 -0.19509 0
0.961524 -0.194256 0.194256
1 0 0
0.980785 0 0.19509
0.961524 -0.194256 0.194256
0.905704 -0.18612 0.380868
0.980785 0 0.19509
0.92388 0 0.382683
0.855851 -0.365731 0.365731
0.777813 -0.339976 0.528606
0.905704 -0.18612 0.380868
0.816954 -0.17276 0.550219
0.777813 -0.339976 0.528606
0.673887 -0.302905 0.673887
0.816954 -0.17276 0.550219
[...]
POINT_DATA 1536
SCALARS solution double 1
LOOKUP_TABLE default
0.123128 0.205358 -0.0887114 -0.0161624 0.205358 0.211461 -0.0161624 0.0318811 -0.0887114 -0.0161624 -0.262044 -0.229785 -0.0161624 0.0318811 -0.229785 -0.165752 0.211461 0.134152 0.0318811 0.035165 0.134152 0.00308942 0.035165 0.00308943 0.0318811 0.035165 -0.165752 -0.0841596 0.035165 0.00308943 -0.0841596 0.00308945 -0.262044 -0.229785 -0.371176 -0.386439 -0.229785 -0.165752 -0.386439 -0.324192 -0.371176 -0.386439 -0.407906 -0.443105 -0.386439 -0.324192 -0.443105 -0.382237 -0.165752 -0.0841596 -0.324192 -0.184329 -0.0841596 0.00308945 -0.184329 0.00308946 -0.324192 -0.184329 -0.382237 -0.221556 -0.184329 0.00308946 -0.221556 0.00308945 0.00308942 -0.127974 0.00308943 -0.0289862 -0.127974 -0.205282 -0.0289862 -0.0257022 0.00308943 -0.0289862 0.00308945 0.0903385 -0.0289862 -0.0257022 0.0903385 0.171931 -0.205282 -0.199179 -0.0257022 0.0223413 -0.199179 -0.116949 0.0223413 0.0948903 -0.0257022 0.0223413 0.171931 0.235964 0.0223413 0.0948903 0.235964 0.268223 0.00308945 0.0903385 0.00308946 0.190508 0.0903385 0.171931 0.190508 0.330371 0.00308946 0.190508 0.00308945 0.227735 0.190508 0.330371 0.227735 0.388416 0.171931 0.235964 0.330371 0.392618 0.235964 0.268223 0.392618 0.377355 0.330371 0.392618 0.388416 0.449284 0.392618 0.377355 0.449284 0.414084 -0.407906 -0.443105 -0.371176 -0.386439 -0.443105 -0.382237 -0.386439 -0.324192 -0.371176 -0.386439 -0.262044 -0.229785 -0.386439 -0.324192 -0.229785 -0.165752 -0.382237 -0.221556 -0.324192 -0.184329 -0.221556 0.00308945 -0.184329 0.00308945 -0.324192 -0.184329 -0.165752 -0.0841596 -0.184329 0.00308945 -0.0841596 0.00308945 -0.262044 -0.229785 -0.0887114 -0.0161625 -0.229785 -0.165752 -0.0161625 0.0318811 -0.0887114 -0.0161625 0.123128 0.205358 -0.0161625 0.0318811 0.205358 0.211461 -0.165752 -0.0841596 0.0318811 0.035165 -0.0841596 0.00308945 0.035165 0.00308945 0.0318811 0.035165 0.211461 0.134152 0.035165 0.00308945 0.134152 0.00308944 0.00308945 0.227735 0.00308945 0.190508 0.227735 0.388416 0.190508 0.330371 0.00308945 0.190508 0.00308945 0.0903385 0.190508 0.330371 0.0903385 0.171931 0.388416 0.449284 0.330371 0.392618 0.449284 0.414084 0.392618 0.377355 0.330371 0.392618 0.171931 0.235964 0.392618 0.377355 0.235964 0.268223 0.00308945 0.0903385 0.00308945 -0.0289862 0.0903385 0.171931 -0.0289862 -0.0257022 0.00308945 -0.0289862 0.00308944 -0.127974 -0.0289862 -0.0257022 -0.127974 -0.205282 0.171931 0.235964 -0.0257022 0.0223413 0.235964 0.268223 0.0223413 0.0948903 -0.0257022 0.0223413 -0.205282 -0.199179 0.0223413 0.0948903 -0.199179 -0.116949 -0.116949 -0.225382 0.0948903 0.0223233 -0.225382 -0.316448 0.0223233 -0.0275046 0.0948903 0.0223233 0.268223 0.198988 0.0223233 -0.0275046 0.198988 0.141488 -0.316448 -0.395817 -0.0275046 -0.0570425 -0.395817 -0.470756 -0.0570425 -0.0699757 -0.0275046 -0.0570425 0.141488 0.106921 -0.0570425 -0.0699757 0.106921 0.106302 0.268223 0.198988 0.377355 0.290011 0.198988 0.141488 0.290011 0.188354 0.377355 0.290011 0.414084 0.313508 0.290011 0.188354 0.313508 0.185999 0.141488 0.106921 0.188354 0.103701 0.106921 0.106302 0.103701 0.0727724 0.188354 0.103701 0.185999 0.0739272 0.103701 0.0727724 0.0739272 0.0247622 -0.470756 -0.540801 -0.0699757 -0.0807422 -0.540801 -0.587026 -0.0807422 -0.0568064 -0.0699757 -0.0807422 0.106302 0.15334 -0.0807422 -0.0568064 0.15334 0.288081 -0.587026 -0.561458 -0.0568064 0.0524033 -0.561458 -0.382413 0.0524033 0.316712 -0.0568064 0.0524033 0.288081 0.557684 0.0524033 0.316712 0.557684 1.00337 0.106302 0.15334 0.0727724 0.14679 0.15334 0.288081 0.14679 0.388638 0.0727724 0.14679 0.0247622 0.10112 0.14679 0.388638 0.10112 0.380656 0.288081 0.557684 0.388638 0.844856 0.557684 1.00337 0.844856 1.48306 0.388638 0.844856 0.380656 0.919424 0.844856 1.48306 0.919424 1.65207 0.414084 0.313508 0.377355 0.290011 0.313508 0.185999 0.290011 0.188354 0.377355 0.290011 0.268223 0.198988 0.290011 0.188354 0.198988 0.141488 0.185999 0.0739272 0.188354 0.103701 0.0739272 0.0247622 0.103701 0.0727724 0.188354 0.103701 0.141488 0.106921 0.103701 0.0727724 0.106921 0.106302 0.268223 0.198988 0.0948903 0.0223233 0.198988 0.141488 0.0223233 -0.0275045 0.0948903 0.0223233 -0.116949 -0.225382 0.0223233 -0.0275045 -0.225382 -0.316448 0.141488 0.106921 -0.0275045 -0.0570425 0.106921 0.106302 -0.0570425 -0.0699757 -0.0275045 -0.0570425 -0.316448 -0.395817 -0.0570425 -0.0699757 -0.395817 -0.470755 0.0247622 0.10112 0.0727724 0.14679 0.10112 0.380656 0.14679 0.388638 0.0727724 0.14679 0.106302 0.15334 0.14679 0.388638 0.15334 0.288081 0.380656 0.919424 0.388638 0.844856 0.919424 1.65207 0.844856 1.48306 0.388638 0.844856 0.288081 0.557684 0.844856 1.48306 0.557684 1.00337 0.106302 0.15334 -0.0699757 -0.0807422 0.15334 0.288081 -0.0807422 -0.0568063 -0.0699757 -0.0807422 -0.470755 -0.540801 -0.0807422 -0.0568063 -0.540801 -0.587026 0.288081 0.557684 -0.0568063 0.0524033 0.557684 1.00337 0.0524033 0.316712 -0.0568063 0.0524033 -0.587026 -0.561458 0.0524033 0.316712 -0.561458 -0.382413 0.388592 -0.310533 0.74663 -0.0509232 -0.310533 -0.997189 -0.0509232 -1.06868 0.74663 -0.0509232 0.840754 0.175559 -0.0509232 -1.06868 0.175559 -0.894576 -0.997189 -1.47688 -1.06868 -1.95306 -1.47688 -1.6459 -1.95306 -2.30599 -1.06868 -1.95306 -0.894576 -1.96084 -1.95306 -2.30599 -1.96084 -2.40249 0.840754 0.175559 0.55911 0.194041 0.175559 -0.894576 0.194041 -0.504166 0.55911 0.194041 0.00308932 0.00308931 0.194041 -0.504166 0.00308931 0.00308929 -0.894576 -1.96084 -0.504166 -1.25442 -1.96084 -2.40249 -1.25442 -1.57055 -0.504166 -1.25442 0.00308929 0.00308928 -1.25442 -1.57055 0.00308928 0.00308929 -1.6459 -1.47688 -2.30599 -1.95306 -1.47688 -0.997189 -1.95306 -1.06868 -2.30599 -1.95306 -2.40249 -1.96084 -1.95306 -1.06868 -1.96084 -0.894576 -0.997189 -0.310533 -1.06868 -0.0509232 -0.310533 0.388592 -0.0509232 0.74663 -1.06868 -0.0509232 -0.894576 0.175559 -0.0509232 0.74663 0.175559 0.840754 -2.40249 -1.96084 -1.57055 -1.25442 -1.96084 -0.894576 -1.25442 -0.504166 -1.57055 -1.25442 0.00308929 0.00308929 -1.25442 -0.504166 0.00308929 0.0030893 -0.894576 0.175559 -0.504166 0.194041 0.175559 0.840754 0.194041 0.55911 -0.504166 0.194041 0.0030893 0.00308931 0.194041 0.55911 0.00308931 0.00308934 0.00308932 0.00308931 -0.552932 -0.187862 0.00308931 0.00308929 -0.187862 0.510344 -0.552932 -0.187862 -0.834575 -0.169381 -0.187862 0.510344 -0.169381 0.900755 0.00308929 0.00308928 0.510344 1.2606 0.00308928 0.00308929 1.2606 1.57673 0.510344 1.2606 0.900755 1.96702 1.2606 1.57673 1.96702 2.40867 -0.834575 -0.169381 -0.740452 0.0571019 -0.169381 0.900755 0.0571019 1.07486 -0.740452 0.0571019 -0.382413 0.316712 0.0571019 1.07486 0.316712 1.00337 0.900755 1.96702 1.07486 1.95924 1.96702 2.40867 1.95924 2.31216 1.07486 1.95924 1.00337 1.48306 1.95924 2.31216 1.48306 1.65207 0.00308929 0.00308929 1.57673 1.2606 0.00308929 0.0030893 1.2606 0.510344 1.57673 1.2606 2.40867 1.96702 1.2606 0.510344 1.96702 0.900755 0.0030893 0.00308931 0.510344 -0.187862 0.00308931 0.00308934 -0.187862 -0.552932 0.510344 -0.187862 0.900755 -0.169381 -0.187862 -0.552932 -0.169381 -0.834575 2.40867 1.96702 2.31216 1.95924 1.96702 0.900755 1.95924 1.07486 2.31216 1.95924 1.65207 1.48306 1.95924 1.07486 1.48306 1.00337 0.900755 -0.169381 1.07486 0.0571018 -0.169381 -0.834575 0.0571018 -0.740452 1.07486 0.0571018 1.00337 0.316712 0.0571018 -0.740452 0.316712 -0.382413 0.123128 -0.0887114 0.23156 -0.0161445 -0.0887114 -0.262044 -0.0161445 -0.192809 0.23156 -0.0161445 0.322627 0.0336833 -0.0161445 -0.192809 0.0336833 -0.135309 -0.262044 -0.371176 -0.192809 -0.283832 -0.371176 -0.407906 -0.283832 -0.307329 -0.192809 -0.283832 -0.135309 -0.182175 -0.283832 -0.307329 -0.182175 -0.179821 0.322627 0.0336833 0.401995 0.0632212 0.0336833 -0.135309 0.0632212 -0.100742 0.401995 0.0632212 0.476934 0.0761544 0.0632212 -0.100742 0.0761544 -0.100124 -0.135309 -0.182175 -0.100742 -0.0975227 -0.182175 -0.179821 -0.0975227 -0.0677485 -0.100742 -0.0975227 -0.100124 -0.0665938 -0.0975227 -0.0677485 -0.0665938 -0.0185835 -0.407906 -0.371176 -0.307329 -0.283833 -0.371176 -0.262044 -0.283833 -0.192809 -0.307329 -0.283833 -0.179821 -0.182175 -0.283833 -0.192809 -0.182175 -0.135309 -0.262044 -0.0887114 -0.192809 -0.0161445 -0.0887114 0.123128 -0.0161445 0.23156 -0.192809 -0.0161445 -0.135309 0.0336833 -0.0161445 0.23156 0.0336833 0.322627 -0.179821 -0.182175 -0.0677485 -0.0975226 -0.182175 -0.135309 -0.0975226 -0.100742 -0.0677485 -0.0975226 -0.0185835 -0.0665937 -0.0975226 -0.100742 -0.0665937 -0.100124 -0.135309 0.0336833 -0.100742 0.0632212 0.0336833 0.322627 0.0632212 0.401995 -0.100742 0.0632212 -0.100124 0.0761545 0.0632212 0.401995 0.0761545 0.476934 0.476934 0.0761544 0.54698 0.0869208 0.0761544 -0.100124 0.0869208 -0.147162 0.54698 0.0869208 0.593204 0.062985 0.0869208 -0.147162 0.062985 -0.281902 -0.100124 -0.0665938 -0.147162 -0.140611 -0.0665938 -0.0185835 -0.140611 -0.0949414 -0.147162 -0.140611 -0.281902 -0.382459 -0.140611 -0.0949414 -0.382459 -0.374477 0.593204 0.062985 0.567637 -0.0462247 0.062985 -0.281902 -0.0462247 -0.551505 0.567637 -0.0462247 0.388592 -0.310533 -0.0462247 -0.551505 -0.310533 -0.997189 -0.281902 -0.382459 -0.551505 -0.838677 -0.382459 -0.374477 -0.838677 -0.913246 -0.551505 -0.838677 -0.997189 -1.47688 -0.838677 -0.913246 -1.47688 -1.6459 -0.0185835 -0.0665937 -0.0949414 -0.140611 -0.0665937 -0.100124 -0.140611 -0.147162 -0.0949414 -0.140611 -0.374477 -0.382459 -0.140611 -0.147162 -0.382459 -0.281902 -0.100124 0.0761545 -0.147162 0.0869209 0.0761545 0.476934 0.0869209 0.54698 -0.147162 0.0869209 -0.281902 0.062985 0.0869209 0.54698 0.062985 0.593204 -0.374477 -0.382459 -0.913246 -0.838677 -0.382459 -0.281902 -0.838677 -0.551505 -0.913246 -0.838677 -1.6459 -1.47688 -0.838677 -0.551505 -1.47688 -0.997189 -0.281902 0.062985 -0.551505 -0.0462246 0.062985 0.593204 -0.0462246 0.567637 -0.551505 -0.0462246 -0.997189 -0.310533 -0.0462246 0.567637 -0.310533 0.388592 0.123128 0.23156 0.205358 0.376143 0.23156 0.322627 0.376143 0.538524 0.205358 0.376143 0.211461 0.391401 0.376143 0.538524 0.391401 0.565949 0.322627 0.401995 0.538524 0.694673 0.401995 0.476934 0.694673 0.849957 0.538524 0.694673 0.565949 0.73754 0.694673 0.849957 0.73754 0.906886 0.211461 0.391401 0.134152 0.249289 0.391401 0.565949 0.249289 0.36052 0.134152 0.249289 0.00308942 0.00308939 0.249289 0.36052 0.00308939 0.00308937 0.565949 0.73754 0.36052 0.468951 0.73754 0.906886 0.468951 0.575315 0.36052 0.468951 0.00308937 0.00308937 0.468951 0.575315 0.00308937 0.00308937 0.476934 0.54698 0.849957 0.986093 0.54698 0.593204 0.986093 1.07227 0.849957 0.986093 0.906886 1.07526 0.986093 1.07227 1.07526 1.1874 0.593204 0.567637 1.07227 1.02287 0.567637 0.388592 1.02287 0.74663 1.07227 1.02287 1.1874 1.14477 1.02287 0.74663 1.14477 0.840754 0.906886 1.07526 0.575315 0.69389 1.07526 1.1874 0.69389 0.778036 0.575315 0.69389 0.00308937 0.00308936 0.69389 0.778036 0.00308936 0.00308934 1.1874 1.14477 0.778036 0.759769 1.14477 0.840754 0.759769 0.55911 0.778036 0.759769 0.00308934 0.00308933 0.759769 0.55911 0.00308933 0.00308932 0.00308942 0.00308939 -0.127974 -0.24311 0.00308939 0.00308937 -0.24311 -0.354341 -0.127974 -0.24311 -0.205282 -0.385222 -0.24311 -0.354341 -0.385222 -0.559771 0.00308937 0.00308937 -0.354341 -0.462772 0.00308937 0.00308937 -0.462772 -0.569136 -0.354341 -0.462772 -0.559771 -0.731361 -0.462772 -0.569136 -0.731361 -0.900707 -0.205282 -0.385222 -0.199179 -0.369964 -0.385222 -0.559771 -0.369964 -0.532345 -0.199179 -0.369964 -0.116949 -0.225382 -0.369964 -0.532345 -0.225382 -0.316448 -0.559771 -0.731361 -0.532345 -0.688494 -0.731361 -0.900707 -0.688494 -0.843779 -0.532345 -0.688494 -0.316448 -0.395817 -0.688494 -0.843779 -0.395817 -0.470756 0.00308937 0.00308936 -0.569136 -0.687711 0.00308936 0.00308934 -0.687711 -0.771858 -0.569136 -0.687711 -0.900707 -1.06908 -0.687711 -0.771858 -1.06908 -1.18122 0.00308934 0.00308933 -0.771858 -0.75359 0.00308933 0.00308932 -0.75359 -0.552932 -0.771858 -0.75359 -1.18122 -1.13859 -0.75359 -0.552932 -1.13859 -0.834575 -0.900707 -1.06908 -0.843779 -0.979915 -1.06908 -1.18122 -0.979915 -1.06609 -0.843779 -0.979915 -0.470756 -0.540801 -0.979915 -1.06609 -0.540801 -0.587026 -1.18122 -1.13859 -1.06609 -1.01669 -1.13859 -0.834575 -1.01669 -0.740452 -1.06609 -1.01669 -0.587026 -0.561458 -1.01669 -0.740452 -0.561458 -0.382413 0.123128 0.205358 0.23156 0.376143 0.205358 0.211461 0.376143 0.391401 0.23156 0.376143 0.322627 0.538524 0.376143 0.391401 0.538524 0.565949 0.211461 0.134152 0.391401 0.249289 0.134152 0.00308944 0.249289 0.00308943 0.391401 0.249289 0.565949 0.36052 0.249289 0.00308943 0.36052 0.00308942 0.322627 0.538524 0.401995 0.694673 0.538524 0.565949 0.694673 0.73754 0.401995 0.694673 0.476934 0.849958 0.694673 0.73754 0.849958 0.906886 0.565949 0.36052 0.73754 0.468951 0.36052 0.00308942 0.468951 0.0030894 0.73754 0.468951 0.906886 0.575315 0.468951 0.0030894 0.575315 0.00308939 0.00308944 -0.127974 0.00308943 -0.24311 -0.127974 -0.205282 -0.24311 -0.385222 0.00308943 -0.24311 0.00308942 -0.354341 -0.24311 -0.385222 -0.354341 -0.559771 -0.205282 -0.199179 -0.385222 -0.369964 -0.199179 -0.116949 -0.369964 -0.225382 -0.385222 -0.369964 -0.559771 -0.532345 -0.369964 -0.225382 -0.532345 -0.316448 0.00308942 -0.354341 0.0030894 -0.462772 -0.354341 -0.559771 -0.462772 -0.731361 0.0030894 -0.462772 0.00308939 -0.569136 -0.462772 -0.731361 -0.569136 -0.900707 -0.559771 -0.532345 -0.731361 -0.688494 -0.532345 -0.316448 -0.688494 -0.395817 -0.731361 -0.688494 -0.900707 -0.843779 -0.688494 -0.395817 -0.843779 -0.470755 0.476934 0.849958 0.54698 0.986093 0.849958 0.906886 0.986093 1.07526 0.54698 0.986093 0.593204 1.07227 0.986093 1.07526 1.07227 1.1874 0.906886 0.575315 1.07526 0.69389 0.575315 0.00308939 0.69389 0.00308938 1.07526 0.69389 1.1874 0.778036 0.69389 0.00308938 0.778036 0.00308938 0.593204 1.07227 0.567637 1.02287 1.07227 1.1874 1.02287 1.14477 0.567637 1.02287 0.388592 0.74663 1.02287 1.14477 0.74663 0.840754 1.1874 0.778036 1.14477 0.759769 0.778036 0.00308938 0.759769 0.00308936 1.14477 0.759769 0.840754 0.55911 0.759769 0.00308936 0.55911 0.00308934 0.00308939 -0.569136 0.00308938 -0.687711 -0.569136 -0.900707 -0.687711 -1.06908 0.00308938 -0.687711 0.00308938 -0.771858 -0.687711 -1.06908 -0.771858 -1.18122 -0.900707 -0.843779 -1.06908 -0.979915 -0.843779 -0.470755 -0.979915 -0.540801 -1.06908 -0.979915 -1.18122 -1.06609 -0.979915 -0.540801 -1.06609 -0.587026 0.00308938 -0.771858 0.00308936 -0.75359 -0.771858 -1.18122 -0.75359 -1.13859 0.00308936 -0.75359 0.00308934 -0.552932 -0.75359 -1.13859 -0.552932 -0.834575 -1.18122 -1.06609 -1.13859 -1.01669 -1.06609 -0.587026 -1.01669 -0.561458 -1.13859 -1.01669 -0.834575 -0.740452 -1.01669 -0.561458 -0.740452 -0.382413 
