# vtk DataFile Version 3.0
#This file was generated by the deal.II library on 2016/6/24 at 10:37:38
ASCII
DATASET UNSTRUCTURED_GRID

POINTS 13824 double
-0.57735 -0.57735 -0.57735
-0.545522 -0.592624 -0.592624
-0.512887 -0.60702 -0.60702
-0.592624 -0.545522 -0.592624
-0.560425 -0.560425 -0.609794
-0.527353 -0.574458 -0.626017
-0.60702 -0.512887 -0.60702
-0.574458 -0.527353 -0.626017
-0.540958 -0.540958 -0.643994
-0.512887 -0.60702 -0.60702
-0.479493 -0.620518 -0.620518
-0.44539 -0.633099 -0.633099
-0.527353 -0.574458 -0.626017
-0.493447 -0.587609 -0.641269
-0.458771 -0.599847 -0.655524
-0.540958 -0.540958 -0.643994
-0.506559 -0.553693 -0.660925
-0.471333 -0.565524 -0.676778
-0.60702 -0.512887 -0.60702
-0.574458 -0.527353 -0.626017
-0.540958 -0.540958 -0.643994
-0.620518 -0.479493 -0.620518
-0.587609 -0.493447 -0.641269
-0.553693 -0.506559 -0.660925
-0.633099 -0.44539 -0.633099
-0.599847 -0.458771 -0.655524
-0.565524 -0.471333 -0.676778
-0.540958 -0.540958 -0.643994
-0.506559 -0.553693 -0.660925
-0.471333 -0.565524 -0.676778
-0.553693 -0.506559 -0.660925
-0.518817 -0.518817 -0.679454
-0.483052 -0.530189 -0.696822
-0.565524 -0.471333 -0.676778
-0.530189 -0.483052 -0.696822
-0.493907 -0.493907 -0.71562
-0.44539 -0.633099 -0.633099
-0.410628 -0.644742 -0.644742
-0.375258 -0.655432 -0.655432
-0.458771 -0.599847 -0.655524
-0.423316 -0.6112 -0.668759
-0.387198 -0.621599 -0.68095
-0.471333 -0.565524 -0.676778
-0.435217 -0.576516 -0.691531
-0.398387 -0.586561 -0.705148
-0.375258 -0.655432 -0.655432
-0.339333 -0.665152 -0.665152
-0.302905 -0.673887 -0.673887
-0.387198 -0.621599 -0.68095
-0.35046 -0.631038 -0.692075
-0.313172 -0.639492 -0.70212
-0.398387 -0.586561 -0.705148
-0.360883 -0.595652 -0.717609
-0.322786 -0.603763 -0.728889
-0.471333 -0.565524 -0.676778
-0.435217 -0.576516 -0.691531
-0.398387 -0.586561 -0.705148
-0.483052 -0.530189 -0.696822
-0.446319 -0.540744 -0.713019
-0.408815 -0.550367 -0.727988
-0.493907 -0.493907 -0.71562
-0.456589 -0.50396 -0.733178
-0.418449 -0.513105 -0.749416
-0.398387 -0.586561 -0.705148
-0.360883 -0.595652 -0.717609
-0.322786 -0.603763 -0.728889
-0.408815 -0.550367 -0.727988
-0.370592 -0.559053 -0.741702
-0.331727 -0.566776 -0.754137
-0.418449 -0.513105 -0.749416
-0.379554 -0.521325 -0.764303
-0.339976 -0.528606 -0.777813
-0.633099 -0.44539 -0.633099
-0.599847 -0.458771 -0.655524
-0.565524 -0.471333 -0.676778
-0.644742 -0.410628 -0.644742
-0.6112 -0.423316 -0.668759
-0.576516 -0.435217 -0.691531
-0.655432 -0.375258 -0.655432
-0.621599 -0.387198 -0.68095
-0.586561 -0.398387 -0.705148
-0.565524 -0.471333 -0.676778
-0.530189 -0.483052 -0.696822
-0.493907 -0.493907 -0.71562
-0.576516 -0.435217 -0.691531
-0.540744 -0.446319 -0.713019
-0.50396 -0.456589 -0.733178
-0.586561 -0.398387 -0.705148
-0.550367 -0.408815 -0.727988
-0.513105 -0.418449 -0.749416
-0.655432 -0.375258 -0.655432
-0.621599 -0.387198 -0.68095
-0.586561 -0.398387 -0.705148
-0.665152 -0.339333 -0.665152
-0.631038 -0.35046 -0.692075
-0.595652 -0.360883 -0.717609
-0.673887 -0.302905 -0.673887
-0.639492 -0.313172 -0.70212
-0.603763 -0.322786 -0.728889
-0.586561 -0.398387 -0.705148
-0.550367 -0.408815 -0.727988
-0.513105 -0.418449 -0.749416
-0.595652 -0.360883 -0.717609
-0.559053 -0.370592 -0.741702
-0.521325 -0.379554 -0.764303
-0.603763 -0.322786 -0.728889
-0.566776 -0.331727 -0.754137
-0.528606 -0.339976 -0.777813
-0.493907 -0.493907 -0.71562
-0.456589 -0.50396 -0.733178
-0.418449 -0.513105 -0.749416
-0.50396 -0.456589 -0.733178
-0.466099 -0.466099 -0.752
-0.427359 -0.474733 -0.769411
-0.513105 -0.418449 -0.749416
-0.474733 -0.427359 -0.769411
-0.435435 -0.435435 -0.787904
-0.418449 -0.513105 -0.749416
-0.379554 -0.521325 -0.764303
-0.339976 -0.528606 -0.777813
-0.427359 -0.474733 -0.769411
-0.387803 -0.482486 -0.785376
-0.347516 -0.489333 -0.799866
-0.435435 -0.435435 -0.787904
-0.395269 -0.44267 -0.804864
-0.354331 -0.44904 -0.820252
-0.513105 -0.418449 -0.749416
-0.474733 -0.427359 -0.769411
-0.435435 -0.435435 -0.787904
-0.521325 -0.379554 -0.764303
-0.482486 -0.387803 -0.785376
-0.44267 -0.395269 -0.804864
-0.528606 -0.339976 -0.777813
-0.489333 -0.347516 -0.799866
-0.44904 -0.354331 -0.820252
-0.435435 -0.435435 -0.787904
-0.395269 -0.44267 -0.804864
-0.354331 -0.44904 -0.820252
-0.44267 -0.395269 -0.804864
-0.401946 -0.401946 -0.822726
-0.360407 -0.407811 -0.838926
-0.44904 -0.354331 -0.820252
-0.407811 -0.360407 -0.838926
-0.365731 -0.365731 -0.855851
-0.302905 -0.673887 -0.673887
-0.26603 -0.681626 -0.681626
-0.228761 -0.688356 -0.688356
-0.313172 -0.639492 -0.70212
-0.275152 -0.647111 -0.711012
-0.236694 -0.653707 -0.718779
-0.322786 -0.603763 -0.728889
-0.283686 -0.61121 -0.738881
-0.244108 -0.617627 -0.747629
-0.228761 -0.688356 -0.688356
-0.191154 -0.694068 -0.694068
-0.153263 -0.698753 -0.698753
-0.236694 -0.653707 -0.718779
-0.19785 -0.659279 -0.725401
-0.158692 -0.663808 -0.730874
-0.244108 -0.617627 -0.747629
-0.204105 -0.623012 -0.755114
-0.163759 -0.627348 -0.761326
-0.322786 -0.603763 -0.728889
-0.283686 -0.61121 -0.738881
-0.244108 -0.617627 -0.747629
-0.331727 -0.566776 -0.754137
-0.291622 -0.573985 -0.765179
-0.250996 -0.580171 -0.774857
-0.339976 -0.528606 -0.777813
-0.298935 -0.535527 -0.789841
-0.257333 -0.541444 -0.800386
-0.244108 -0.617627 -0.747629
-0.204105 -0.623012 -0.755114
-0.163759 -0.627348 -0.761326
-0.250996 -0.580171 -0.774857
-0.209912 -0.585335 -0.783147
-0.168451 -0.589456 -0.790042
-0.257333 -0.541444 -0.800386
-0.215248 -0.546344 -0.80943
-0.17276 -0.550219 -0.816954
-0.153263 -0.698753 -0.698753
-0.115146 -0.702403 -0.702403
-0.0768591 -0.705015 -0.705015
-0.158692 -0.663808 -0.730874
-0.119244 -0.667332 -0.735152
-0.0796059 -0.669797 -0.738265
-0.163759 -0.627348 -0.761326
-0.123066 -0.630709 -0.766199
-0.0821654 -0.633003 -0.769777
-0.0768591 -0.705015 -0.705015
-0.038458 -0.706584 -0.706584
0 -0.707107 -0.707107
-0.0796059 -0.669797 -0.738265
-0.0398351 -0.671211 -0.740195
0 -0.671559 -0.740951
-0.0821654 -0.633003 -0.769777
-0.0411175 -0.634234 -0.772047
0 -0.634393 -0.77301
-0.163759 -0.627348 -0.761326
-0.123066 -0.630709 -0.766199
-0.0821654 -0.633003 -0.769777
-0.168451 -0.589456 -0.790042
-0.126608 -0.592606 -0.79548
-0.0845356 -0.594695 -0.799495
-0.17276 -0.550219 -0.816954
-0.129855 -0.553123 -0.822917
-0.0867065 -0.554986 -0.827329
-0.0821654 -0.633003 -0.769777
-0.0411175 -0.634234 -0.772047
0 -0.634393 -0.77301
-0.0845356 -0.594695 -0.799495
-0.0423062 -0.595731 -0.802069
0 -0.595699 -0.803208
-0.0867065 -0.554986 -0.827329
-0.0433942 -0.555802 -0.830182
0 -0.55557 -0.83147
-0.339976 -0.528606 -0.777813
-0.298935 -0.535527 -0.789841
-0.257333 -0.541444 -0.800386
-0.347516 -0.489333 -0.799866
-0.305641 -0.495852 -0.812843
-0.263164 -0.501397 -0.824225
-0.354331 -0.44904 -0.820252
-0.311691 -0.455108 -0.834102
-0.268414 -0.460244 -0.846245
-0.257333 -0.541444 -0.800386
-0.215248 -0.546344 -0.80943
-0.17276 -0.550219 -0.816954
-0.263164 -0.501397 -0.824225
-0.220158 -0.505967 -0.833983
-0.176718 -0.509544 -0.842102
-0.268414 -0.460244 -0.846245
-0.224572 -0.464445 -0.856655
-0.18027 -0.467696 -0.865311
-0.354331 -0.44904 -0.820252
-0.311691 -0.455108 -0.834102
-0.268414 -0.460244 -0.846245
-0.360407 -0.407811 -0.838926
-0.31708 -0.413371 -0.853571
-0.273078 -0.418054 -0.866406
-0.365731 -0.365731 -0.855851
-0.321788 -0.370743 -0.871207
-0.27714 -0.374942 -0.884654
-0.268414 -0.460244 -0.846245
-0.224572 -0.464445 -0.856655
-0.18027 -0.467696 -0.865311
-0.273078 -0.418054 -0.866406
-0.228486 -0.42186 -0.877398
-0.183406 -0.424771 -0.886528
-0.27714 -0.374942 -0.884654
-0.231884 -0.378319 -0.896161
-0.18612 -0.380868 -0.905704
-0.17276 -0.550219 -0.816954
-0.129855 -0.553123 -0.822917
-0.0867065 -0.554986 -0.827329
-0.176718 -0.509544 -0.842102
-0.132849 -0.512197 -0.848531
-0.0887154 -0.51384 -0.853287
-0.18027 -0.467696 -0.865311
-0.135531 -0.470068 -0.872162
-0.090514 -0.471476 -0.877222
-0.0867065 -0.554986 -0.827329
-0.0433942 -0.555802 -0.830182
0 -0.55557 -0.83147
-0.0887154 -0.51384 -0.853287
-0.044402 -0.514479 -0.856353
0 -0.514103 -0.857729
-0.090514 -0.471476 -0.877222
-0.0453036 -0.471921 -0.880476
0 -0.471397 -0.881921
-0.18027 -0.467696 -0.865311
-0.135531 -0.470068 -0.872162
-0.090514 -0.471476 -0.877222
-0.183406 -0.424771 -0.886528
-0.137901 -0.426826 -0.893758
-0.0921011 -0.427973 -0.899086
-0.18612 -0.380868 -0.905704
-0.139948 -0.382581 -0.913261
-0.0934697 -0.383456 -0.918817
-0.090514 -0.471476 -0.877222
-0.0453036 -0.471921 -0.880476
0 -0.471397 -0.881921
-0.0921011 -0.427973 -0.899086
-0.0461 -0.42822 -0.902498
0 -0.427555 -0.903989
-0.0934697 -0.383456 -0.918817
-0.0467861 -0.38349 -0.922359
0 -0.382683 -0.92388
-0.673887 -0.302905 -0.673887
-0.639492 -0.313172 -0.70212
-0.603763 -0.322786 -0.728889
-0.681626 -0.26603 -0.681626
-0.647111 -0.275152 -0.711012
-0.61121 -0.283686 -0.738881
-0.688356 -0.228761 -0.688356
-0.653707 -0.236694 -0.718779
-0.617627 -0.244108 -0.747629
-0.603763 -0.322786 -0.728889
-0.566776 -0.331727 -0.754137
-0.528606 -0.339976 -0.777813
-0.61121 -0.283686 -0.738881
-0.573985 -0.291622 -0.765179
-0.535527 -0.298935 -0.789841
-0.617627 -0.244108 -0.747629
-0.580171 -0.250996 -0.774857
-0.541444 -0.257333 -0.800386
-0.688356 -0.228761 -0.688356
-0.653707 -0.236694 -0.718779
-0.617627 -0.244108 -0.747629
-0.694068 -0.191154 -0.694068
-0.659279 -0.19785 -0.725401
-0.623012 -0.204105 -0.755114
-0.698753 -0.153263 -0.698753
-0.663808 -0.158692 -0.730874
-0.627348 -0.163759 -0.761326
-0.617627 -0.244108 -0.747629
-0.580171 -0.250996 -0.774857
-0.541444 -0.257333 -0.800386
-0.623012 -0.204105 -0.755114
-0.585335 -0.209912 -0.783147
-0.546344 -0.215248 -0.80943
-0.627348 -0.163759 -0.761326
-0.589456 -0.168451 -0.790042
-0.550219 -0.17276 -0.816954
-0.528606 -0.339976 -0.777813
-0.489333 -0.347516 -0.799866
-0.44904 -0.354331 -0.820252
-0.535527 -0.298935 -0.789841
-0.495852 -0.305641 -0.812843
-0.455108 -0.311691 -0.834102
-0.541444 -0.257333 -0.800386
-0.501397 -0.263164 -0.824225
-0.460244 -0.268414 -0.846245
[...]
POINT_DATA 13824
SCALARS solution double 1
LOOKUP_TABLE default
0.132302 0.158169 0.18085 0.0766911 0.101894 0.124668 0.0219968 0.0458336 0.0680229 0.18085 0.199508 0.213628 0.124668 0.144276 0.160038 0.0680229 0.087858 0.104653 0.0219968 0.0458336 0.0680229 -0.0309665 -0.00924168 0.0116773 -0.0816567 -0.0625937 -0.0435604 0.0680229 0.087858 0.104653 0.0116773 0.0310837 0.0482962 -0.0435604 -0.0252046 -0.00816845 0.213628 0.222655 0.226303 0.160038 0.171486 0.178143 0.104653 0.117955 0.127182 0.226303 0.224365 0.216831 0.178143 0.179769 0.176267 0.127182 0.132034 0.132355 0.104653 0.117955 0.127182 0.0482962 0.0628675 0.074174 -0.00816845 0.00710805 0.0200063 0.127182 0.132034 0.132355 0.074174 0.0818815 0.0857761 0.0200063 0.0301553 0.0373175 -0.0816567 -0.0625937 -0.0435604 -0.129451 -0.113663 -0.0971241 -0.17395 -0.161783 -0.148161 -0.0435604 -0.0252046 -0.00816845 -0.0971241 -0.0804096 -0.0641186 -0.148161 -0.133552 -0.118483 -0.17395 -0.161783 -0.148161 -0.214747 -0.206473 -0.196078 -0.251593 -0.247312 -0.240321 -0.148161 -0.133552 -0.118483 -0.196078 -0.183929 -0.170454 -0.240321 -0.230872 -0.219274 -0.00816845 0.00710805 0.0200063 -0.0641186 -0.0486428 -0.034597 -0.118483 -0.103293 -0.0885524 0.0200063 0.0301553 0.0373175 -0.034597 -0.0223465 -0.0121748 -0.0885524 -0.0746159 -0.0617813 -0.118483 -0.103293 -0.0885524 -0.170454 -0.155979 -0.140958 -0.219274 -0.205834 -0.190871 -0.0885524 -0.0746159 -0.0617813 -0.140958 -0.125719 -0.110558 -0.190871 -0.174681 -0.157535 0.216831 0.203846 0.185689 0.176267 0.167776 0.154372 0.132355 0.128368 0.119855 0.185689 0.162823 0.135792 0.154372 0.136437 0.114502 0.119855 0.107141 0.0906991 0.132355 0.128368 0.119855 0.0857761 0.0861965 0.082636 0.0373175 0.0419898 0.0433631 0.119855 0.107141 0.0906991 0.082636 0.0753475 0.064731 0.0433631 0.0416032 0.0370376 0.135792 0.105308 0.0721275 0.114502 0.089218 0.0613342 0.0906991 0.071145 0.0491601 0.0721275 0.0371231 0.00118694 0.0613342 0.0316896 0.00118694 0.0491601 0.0255501 0.00118695 0.0906991 0.071145 0.0491601 0.064731 0.0513351 0.0357734 0.0370376 0.0301292 0.0214066 0.0491601 0.0255501 0.00118695 0.0357734 0.0187888 0.00118695 0.0214066 0.0115208 0.00118695 0.0373175 0.0419898 0.0433631 -0.0121748 -0.00355104 0.00260277 -0.0617813 -0.0494814 -0.0387241 0.0433631 0.0416032 0.0370376 0.00260277 0.00637815 0.00799433 -0.0387241 -0.0295 -0.0216919 -0.0617813 -0.0494814 -0.0387241 -0.110558 -0.0949078 -0.0797946 -0.157535 -0.138866 -0.119692 -0.0387241 -0.0295 -0.0216919 -0.0797946 -0.0652885 -0.0513827 -0.119692 -0.100169 -0.0803876 0.0370376 0.0301292 0.0214066 0.00799433 0.00783254 0.0062812 -0.0216919 -0.0150251 -0.00925463 0.0214066 0.0115208 0.00118695 0.0062812 0.0038718 0.00118696 -0.00925463 -0.00399366 0.00118696 -0.0216919 -0.0150251 -0.00925463 -0.0513827 -0.0379491 -0.0248626 -0.0803876 -0.060388 -0.0401574 -0.00925463 -0.00399366 0.00118696 -0.0248626 -0.0119004 0.00118697 -0.0401574 -0.019653 0.00118697 -0.251593 -0.247312 -0.240321 -0.284272 -0.284162 -0.280861 -0.312666 -0.316505 -0.316746 -0.240321 -0.230872 -0.219274 -0.280861 -0.274473 -0.265179 -0.316746 -0.313359 -0.30639 -0.312666 -0.316505 -0.316746 -0.336699 -0.344141 -0.347649 -0.356341 -0.366924 -0.373298 -0.316746 -0.313359 -0.30639 -0.347649 -0.347064 -0.342303 -0.373298 -0.375192 -0.372408 -0.219274 -0.205834 -0.190871 -0.265179 -0.253129 -0.238591 -0.30639 -0.295844 -0.28191 -0.190871 -0.174681 -0.157535 -0.238591 -0.221786 -0.202969 -0.28191 -0.264744 -0.24456 -0.30639 -0.295844 -0.28191 -0.342303 -0.333264 -0.320025 -0.372408 -0.364751 -0.352192 -0.28191 -0.264744 -0.24456 -0.320025 -0.302672 -0.281376 -0.352192 -0.334761 -0.312579 -0.356341 -0.366924 -0.373298 -0.371591 -0.384753 -0.393499 -0.382463 -0.397553 -0.408064 -0.373298 -0.375192 -0.372408 -0.393499 -0.397457 -0.396324 -0.408064 -0.413556 -0.413643 -0.382463 -0.397553 -0.408064 -0.388977 -0.405277 -0.416887 -0.391146 -0.407904 -0.4199 -0.408064 -0.413556 -0.413643 -0.416887 -0.423312 -0.42412 -0.4199 -0.426615 -0.427607 -0.372408 -0.364751 -0.352192 -0.396324 -0.389829 -0.377855 -0.413643 -0.408002 -0.396448 -0.352192 -0.334761 -0.312579 -0.377855 -0.360366 -0.33745 -0.396448 -0.378899 -0.355415 -0.413643 -0.408002 -0.396448 -0.42412 -0.418963 -0.407614 -0.427607 -0.422524 -0.411133 -0.396448 -0.378899 -0.355415 -0.407614 -0.389964 -0.366056 -0.411133 -0.393325 -0.369135 -0.157535 -0.138866 -0.119692 -0.202969 -0.181526 -0.158516 -0.24456 -0.22073 -0.194313 -0.119692 -0.100169 -0.0803876 -0.158516 -0.134164 -0.108685 -0.194313 -0.165599 -0.134911 -0.24456 -0.22073 -0.194313 -0.281376 -0.255552 -0.226196 -0.312579 -0.285131 -0.253327 -0.194313 -0.165599 -0.134911 -0.226196 -0.193658 -0.158356 -0.253327 -0.217574 -0.178365 -0.0803876 -0.060388 -0.0401574 -0.108685 -0.082237 -0.0550106 -0.134911 -0.102521 -0.0688141 -0.0401574 -0.019653 0.00118697 -0.0550106 -0.0271532 0.00118697 -0.0688141 -0.0341273 0.00118698 -0.134911 -0.102521 -0.0688141 -0.158356 -0.120682 -0.0811835 -0.178365 -0.136195 -0.0917551 -0.0688141 -0.0341273 0.00118698 -0.0811835 -0.0403782 0.00118698 -0.0917551 -0.0457221 0.00118698 -0.312579 -0.285131 -0.253327 -0.33745 -0.308762 -0.275047 -0.355415 -0.325827 -0.290728 -0.253327 -0.217574 -0.178365 -0.275047 -0.236741 -0.194408 -0.290728 -0.250574 -0.205982 -0.355415 -0.325827 -0.290728 -0.366056 -0.335903 -0.299957 -0.369135 -0.338746 -0.302499 -0.290728 -0.250574 -0.205982 -0.299957 -0.258694 -0.212753 -0.302499 -0.260884 -0.214539 -0.178365 -0.136195 -0.0917551 -0.194408 -0.148641 -0.100238 -0.205982 -0.157619 -0.106357 -0.0917551 -0.0457221 0.00118698 -0.100238 -0.0500084 0.00118698 -0.106357 -0.0530999 0.00118698 -0.205982 -0.157619 -0.106357 -0.212753 -0.162865 -0.109929 -0.214539 -0.164234 -0.110852 -0.106357 -0.0530999 0.00118698 -0.109929 -0.0549026 0.00118698 -0.110852 -0.0553666 0.00118698 0.00118694 -0.0347493 -0.0697536 0.00118694 -0.0293157 -0.0589603 0.00118695 -0.0231762 -0.0467862 -0.0697536 -0.102934 -0.133418 -0.0589603 -0.0868441 -0.112128 -0.0467862 -0.0687711 -0.0883252 0.00118695 -0.0231762 -0.0467862 0.00118695 -0.0164149 -0.0333995 0.00118695 -0.00914692 -0.0190327 -0.0467862 -0.0687711 -0.0883252 -0.0333995 -0.0489612 -0.0623571 -0.0190327 -0.0277553 -0.0346637 -0.133418 -0.160449 -0.183315 -0.112128 -0.134063 -0.151998 -0.0883252 -0.104767 -0.117481 -0.183315 -0.201472 -0.214457 -0.151998 -0.165403 -0.173893 -0.117481 -0.125994 -0.129981 -0.0883252 -0.104767 -0.117481 -0.0623571 -0.0729736 -0.0802621 -0.0346637 -0.0392292 -0.0409891 -0.117481 -0.125994 -0.129981 -0.0802621 -0.0838225 -0.0834022 -0.0409891 -0.0396159 -0.0349436 0.00118695 -0.00914692 -0.0190327 0.00118696 -0.00149789 -0.00390729 0.00118696 0.00636758 0.0116286 -0.0190327 -0.0277553 -0.0346637 -0.00390729 -0.00545862 -0.00562041 0.0116286 0.017399 0.0240658 0.00118696 0.00636758 0.0116286 0.00118697 0.0142743 0.0272366 0.00118697 0.022027 0.0425313 0.0116286 0.017399 0.0240658 0.0272366 0.040323 0.0537566 0.0425313 0.062762 0.0827616 -0.0346637 -0.0392292 -0.0409891 -0.00562041 -0.00400422 -0.000228841 0.0240658 0.0318739 0.041098 -0.0409891 -0.0396159 -0.0349436 -0.000228841 0.00592497 0.0145488 0.041098 0.0518554 0.0641553 0.0240658 0.0318739 0.041098 0.0537566 0.0676625 0.0821685 0.0827616 0.102543 0.122066 0.041098 0.0518554 0.0641553 0.0821685 0.0972817 0.112932 0.122066 0.14124 0.159909 -0.214457 -0.221991 -0.223929 -0.173893 -0.177395 -0.175769 -0.129981 -0.12966 -0.124808 -0.223929 -0.220281 -0.211254 -0.175769 -0.169112 -0.157664 -0.124808 -0.115581 -0.102279 -0.129981 -0.12966 -0.124808 -0.0834022 -0.0795075 -0.0718001 -0.0349436 -0.0277813 -0.0176324 -0.124808 -0.115581 -0.102279 -0.0718001 -0.0604936 -0.0459222 -0.0176324 -0.00473409 0.0105424 -0.211254 -0.197134 -0.178476 -0.157664 -0.141902 -0.122294 -0.102279 -0.0854841 -0.0656489 -0.178476 -0.155795 -0.129928 -0.122294 -0.0995197 -0.0743171 -0.0656489 -0.0434596 -0.0196228 -0.102279 -0.0854841 -0.0656489 -0.0459222 -0.0287097 -0.00930336 0.0105424 0.0275786 0.0459343 -0.0656489 -0.0434596 -0.0196228 -0.00930336 0.0116157 0.0333405 0.0459343 0.0649677 0.0840307 -0.0349436 -0.0277813 -0.0176324 0.0145488 0.0247205 0.036971 0.0641553 0.0769899 0.0909263 -0.0176324 -0.00473409 0.0105424 0.036971 0.0510168 0.0664926 0.0909263 0.105667 0.120857 0.0641553 0.0769899 0.0909263 0.112932 0.128093 0.143332 0.159909 0.177055 0.193245 0.0909263 0.105667 0.120857 0.143332 0.158353 0.172828 0.193245 0.208208 0.221648 0.0105424 0.0275786 0.0459343 0.0664926 0.0827836 0.099498 0.120857 0.135926 0.150535 0.0459343 0.0649677 0.0840307 0.099498 0.116037 0.131825 0.150535 0.164157 0.176324 0.120857 0.135926 0.150535 0.172828 0.186303 0.198452 0.221648 0.233246 0.242695 0.150535 0.164157 0.176324 0.198452 0.208847 0.217121 0.242695 0.249686 0.253966 0.00118697 0.022027 0.0425313 0.00118697 0.0295271 0.0573846 0.00118698 0.0365013 0.071188 0.0425313 0.062762 0.0827616 0.0573846 0.084611 0.111059 0.071188 0.104895 0.137285 0.00118698 0.0365013 0.071188 0.00118698 0.0427521 0.0835575 0.00118698 0.048096 0.0941291 0.071188 0.104895 0.137285 0.0835575 0.123056 0.16073 0.0941291 0.138569 0.180739 0.0827616 0.102543 0.122066 0.111059 0.136538 0.16089 0.137285 0.167973 0.196687 0.122066 0.14124 0.159909 0.16089 0.183899 0.205343 0.196687 0.223104 0.246934 0.137285 0.167973 0.196687 0.16073 0.196032 0.22857 0.180739 0.219948 0.255701 0.196687 0.223104 0.246934 0.22857 0.257926 0.28375 0.255701 0.287505 0.314953 0.00118698 0.048096 0.0941291 0.00118698 0.0523823 0.102612 0.00118698 0.0554738 0.108731 0.0941291 0.138569 0.180739 0.102612 0.151015 0.196782 0.108731 0.159993 0.208356 0.00118698 0.0554738 0.108731 0.00118698 0.0572765 0.112302 0.00118698 0.0577406 0.113226 0.108731 0.159993 0.208356 0.112302 0.165239 0.215127 0.113226 0.166608 0.216913 0.180739 0.219948 0.255701 0.196782 0.239115 0.277421 0.208356 0.252948 0.293102 0.255701 0.287505 0.314953 0.277421 0.311136 0.339824 0.293102 0.328201 0.357789 0.208356 0.252948 0.293102 0.215127 0.261068 0.302331 0.216913 0.263258 0.304873 0.293102 0.328201 0.357789 0.302331 0.338277 0.36843 0.304873 0.34112 0.371509 0.159909 0.177055 0.193245 0.205343 0.22416 0.240965 0.246934 0.267118 0.284284 0.193245 0.208208 0.221648 0.240965 0.255503 0.267553 0.284284 0.298218 0.308764 0.246934 0.267118 0.284284 0.28375 0.305046 0.322399 0.314953 0.337135 0.354566 0.284284 0.298218 0.308764 0.322399 0.335638 0.344677 0.354566 0.367125 0.374782 0.221648 0.233246 0.242695 0.267553 0.276847 0.283235 0.308764 0.315733 0.31912 0.242695 0.249686 0.253966 0.283235 0.286536 0.286646 0.31912 0.318879 0.31504 0.308764 0.315733 0.31912 0.344677 0.349438 0.350023 0.374782 0.377566 0.375672 0.31912 0.318879 0.31504 0.350023 0.346515 0.339073 0.375672 0.369298 0.358715 0.314953 0.337135 0.354566 0.339824 0.36274 0.380229 0.357789 0.381273 0.398822 0.354566 0.367125 0.374782 0.380229 0.392203 0.398698 0.398822 0.410376 0.416017 0.357789 0.381273 0.398822 0.36843 0.392338 0.409988 0.371509 0.395699 0.413507 0.398822 0.410376 0.416017 0.409988 0.421337 0.426494 0.413507 0.424898 0.429981 0.374782 0.377566 0.375672 0.398698 0.399831 0.395873 0.416017 0.41593 0.410438 0.375672 0.369298 0.358715 0.395873 0.387127 0.373965 0.410438 0.399927 0.384837 0.416017 0.41593 0.410438 0.426494 0.425686 0.419261 0.429981 0.428989 0.422273 0.410438 0.399927 0.384837 0.419261 0.407651 0.391351 0.422273 0.410278 0.39352 -0.391146 -0.407904 -0.4199 -0.388977 -0.405277 -0.416887 -0.382463 -0.397553 -0.408064 -0.4199 -0.426615 -0.427607 -0.416887 -0.423312 -0.42412 -0.408064 -0.413556 -0.413643 -0.382463 -0.397553 -0.408064 -0.371591 -0.384753 -0.393499 -0.356341 -0.366924 -0.373298 -0.408064 -0.413556 -0.413643 -0.393499 -0.397457 -0.396324 -0.373298 -0.375192 -0.372408 -0.427607 -0.422524 -0.411133 -0.42412 -0.418963 -0.407614 -0.413643 -0.408002 -0.396448 -0.411133 -0.393325 -0.369135 -0.407614 -0.389964 -0.366056 -0.396448 -0.378899 -0.355415 -0.413643 -0.408002 -0.396448 -0.396324 -0.389829 -0.377855 -0.372408 -0.364751 -0.352192 -0.396448 -0.378899 -0.355415 -0.377855 -0.360366 -0.33745 -0.352192 -0.334761 -0.312579 -0.356341 -0.366924 -0.373298 -0.336699 -0.344141 -0.347649 -0.312666 -0.316505 -0.316746 -0.373298 -0.375192 -0.372408 -0.347649 -0.347064 -0.342303 -0.316746 -0.313359 -0.30639 -0.312666 -0.316505 -0.316746 -0.284272 -0.284162 -0.280861 -0.251592 -0.247312 -0.240321 -0.316746 -0.313359 -0.30639 -0.280861 -0.274473 -0.265179 -0.240321 -0.230872 -0.219274 -0.372408 -0.364751 -0.352192 -0.342303 -0.333264 -0.320025 -0.30639 -0.295844 -0.281911 -0.352192 -0.334761 -0.312579 -0.320025 -0.302672 -0.281376 -0.281911 -0.264744 -0.24456 -0.30639 -0.295844 -0.281911 -0.265179 -0.25313 -0.238591 -0.219274 -0.205834 -0.190871 -0.281911 -0.264744 -0.24456 -0.238591 -0.221786 -0.202969 -0.190871 -0.174681 -0.157535 -0.369135 -0.338746 -0.302499 -0.366056 -0.335903 -0.299957 -0.355415 -0.325827 -0.290728 -0.302499 -0.260884 -0.214539 -0.299957 -0.258694 -0.212753 -0.290728 -0.250574 -0.205982 -0.355415 -0.325827 -0.290728 -0.33745 -0.308762 -0.275047 -0.312579 -0.285131 -0.253327 -0.290728 -0.250574 -0.205982 -0.275047 -0.236741 -0.194408 -0.253327 -0.217574 -0.178365 -0.214539 -0.164234 -0.110852 -0.212753 -0.162865 -0.109929 -0.205982 -0.157619 -0.106357 -0.110852 -0.0553666 0.00118698 -0.109929 -0.0549026 0.00118698 -0.106357 -0.0530999 0.00118698 -0.205982 -0.157619 -0.106357 -0.194408 -0.148641 -0.100238 -0.178365 -0.136195 -0.0917552 -0.106357 -0.0530999 0.00118698 -0.100238 -0.0500084 0.00118697 -0.0917552 -0.0457221 0.00118697 -0.312579 -0.285131 -0.253327 -0.281376 -0.255552 -0.226196 -0.24456 -0.22073 -0.194313 -0.253327 -0.217574 -0.178365 -0.226196 -0.193658 -0.158356 -0.194313 -0.165599 -0.134911 -0.24456 -0.22073 -0.194313 -0.202969 -0.181526 -0.158516 -0.157535 -0.138866 -0.119692 -0.194313 -0.165599 -0.134911 -0.158516 -0.134164 -0.108685 -0.119692 -0.100169 -0.0803877 -0.178365 -0.136195 -0.0917552 -0.158356 -0.120682 -0.0811835 -0.134911 -0.102521 -0.0688141 -0.0917552 -0.0457221 0.00118697 -0.0811835 -0.0403782 0.00118697 -0.0688141 -0.0341273 0.00118697 -0.134911 -0.102521 -0.0688141 -0.108685 -0.082237 -0.0550106 -0.0803877 -0.060388 -0.0401574 -0.0688141 -0.0341273 0.00118697 -0.0550106 -0.0271532 0.00118696 -0.0401574 -0.019653 0.00118696 -0.251592 -0.247312 -0.240321 -0.214747 -0.206473 -0.196078 -0.17395 -0.161783 -0.148161 -0.240321 -0.230872 -0.219274 -0.196078 -0.183929 -0.170454 -0.148161 -0.133552 -0.118483 -0.17395 -0.161783 -0.148161 -0.129451 -0.113663 -0.0971241 -0.0816567 -0.0625937 -0.0435604 -0.148161 -0.133552 -0.118483 -0.0971241 -0.0804096 -0.0641186 -0.0435604 -0.0252046 -0.00816847 -0.219274 -0.205834 -0.190871 -0.170454 -0.155979 -0.140958 -0.118483 -0.103293 -0.0885524 -0.190871 -0.174681 -0.157535 -0.140958 -0.125719 -0.110558 -0.0885524 -0.0746159 -0.0617813 -0.118483 -0.103293 -0.0885524 -0.0641186 -0.0486428 -0.034597 -0.00816847 0.00710803 0.0200063 -0.0885524 -0.0746159 -0.0617813 -0.034597 -0.0223466 -0.0121748 0.0200063 0.0301552 0.0373175 -0.0816567 -0.0625937 -0.0435604 -0.0309665 -0.00924168 0.0116773 0.0219968 0.0458336 0.0680229 -0.0435604 -0.0252046 -0.00816847 0.0116773 0.0310837 0.0482962 0.0680229 0.087858 0.104653 0.0219968 0.0458336 0.0680229 0.0766911 0.101894 0.124668 0.132302 0.158169 0.18085 0.0680229 0.087858 0.104653 0.124668 0.144275 0.160038 0.18085 0.199508 0.213628 -0.00816847 0.00710803 0.0200063 0.0482962 0.0628675 0.074174 0.104653 0.117955 0.127182 0.0200063 0.0301552 0.0373175 0.074174 0.0818814 0.0857761 0.127182 0.132034 0.132355 0.104653 0.117955 0.127182 0.160038 0.171486 0.178143 0.213628 0.222655 0.226303 0.127182 0.132034 0.132355 0.178143 0.179769 0.176267 0.226303 0.224365 0.216831 -0.157535 -0.138866 -0.119692 -0.110558 -0.0949078 -0.0797946 -0.0617813 -0.0494814 -0.0387241 -0.119692 -0.100169 -0.0803877 -0.0797946 -0.0652886 -0.0513827 -0.0387241 -0.0295 -0.0216919 -0.0617813 -0.0494814 -0.0387241 -0.0121748 -0.00355106 0.00260274 0.0373175 0.0419898 0.043363 -0.0387241 -0.0295 -0.0216919 0.00260274 0.00637812 0.00799431 0.043363 0.0416031 0.0370376 -0.0803877 -0.060388 -0.0401574 -0.0513827 -0.0379491 -0.0248626 -0.0216919 -0.0150251 -0.00925465 -0.0401574 -0.019653 0.00118696 -0.0248626 -0.0119004 0.00118695 -0.00925465 -0.00399368 0.00118695 -0.0216919 -0.0150251 -0.00925465 0.00799431 0.00783251 0.00628118 0.0370376 0.0301292 0.0214066 -0.00925465 -0.00399368 0.00118695 0.00628118 0.00387179 0.00118694 0.0214066 0.0115208 0.00118694 0.0373175 0.0419898 0.043363 0.0857761 0.0861964 0.082636 0.132355 0.128368 0.119855 0.043363 0.0416031 0.0370376 0.082636 0.0753475 0.064731 0.119855 0.107141 0.0906991 0.132355 0.128368 0.119855 0.176267 0.167776 0.154372 0.216831 0.203846 0.185689 0.119855 0.107141 0.0906991 0.154372 0.136437 0.114502 0.185689 0.162823 0.135792 0.0370376 0.0301292 0.0214066 0.064731 0.0513351 0.0357734 0.0906991 0.071145 0.0491601 0.0214066 0.0115208 0.00118694 0.0357734 0.0187887 0.00118694 0.0491601 0.0255501 0.00118693 0.0906991 0.071145 0.0491601 0.114502 0.0892179 0.0613342 0.135792 0.105308 0.0721275 0.0491601 0.0255501 0.00118693 0.0613342 0.0316896 0.00118693 0.0721275 0.0371231 0.00118693 0.00118698 0.0577406 0.113226 0.00118698 0.0572765 0.112302 0.00118698 0.0554738 0.108731 0.113226 0.166608 0.216913 0.112302 0.165239 0.215127 0.108731 0.159993 0.208356 0.00118698 0.0554738 0.108731 0.00118697 0.0523823 0.102612 0.00118697 0.048096 0.0941291 0.108731 0.159993 0.208356 0.102612 0.151015 0.196782 0.0941291 0.138569 0.180739 0.216913 0.263258 0.304873 0.215127 0.261068 0.302331 0.208356 0.252948 0.293102 0.304873 0.34112 0.371509 0.302331 0.338277 0.36843 0.293102 0.328201 0.357789 0.208356 0.252948 0.293102 0.196782 0.239115 0.277421 0.180739 0.219948 0.255701 0.293102 0.328201 0.357789 0.277421 0.311136 0.339824 0.255701 0.287505 0.314953 0.00118697 0.048096 0.0941291 0.00118697 0.0427521 0.0835575 0.00118697 0.0365013 0.071188 0.0941291 0.138569 0.180739 0.0835575 0.123056 0.16073 0.071188 0.104895 0.137285 0.00118697 0.0365013 0.071188 0.00118696 0.0295271 0.0573846 0.00118696 0.022027 0.0425313 0.071188 0.104895 0.137285 0.0573846 0.084611 0.111059 0.0425313 0.062762 0.0827616 0.180739 0.219948 0.255701 0.16073 0.196032 0.22857 0.137285 0.167973 0.196687 0.255701 0.287505 0.314953 0.22857 0.257926 0.28375 0.196687 0.223104 0.246934 0.137285 0.167973 0.196687 0.111059 0.136538 0.16089 0.0827616 0.102543 0.122066 0.196687 0.223104 0.246934 0.16089 0.1839 0.205343 0.122066 0.14124 0.159909 0.371509 0.395699 0.413507 0.36843 0.392338 0.409988 0.357789 0.381273 0.398822 0.413507 0.424898 0.429981 0.409988 0.421337 0.426494 0.398822 0.410376 0.416017 0.357789 0.381273 0.398822 0.339824 0.36274 0.380229 0.314953 0.337135 0.354566 0.398822 0.410376 0.416017 0.380229 0.392203 0.398698 0.354566 0.367125 0.374782 0.429981 0.428989 0.422273 0.426494 0.425686 0.419261 0.416017 0.41593 0.410438 0.422273 0.410278 0.39352 0.419261 0.407651 0.391351 0.410438 0.399927 0.384837 0.416017 0.41593 0.410438 0.398698 0.399831 0.395873 0.374782 0.377566 0.375672 0.410438 0.399927 0.384837 0.395873 0.387127 0.373965 0.375672 0.369298 0.358715 0.314953 0.337135 0.354566 0.28375 0.305046 0.322399 0.246934 0.267118 0.284284 0.354566 0.367125 0.374782 0.322399 0.335638 0.344677 0.284284 0.298218 0.308764 0.246934 0.267118 0.284284 0.205343 0.22416 0.240965 0.159909 0.177055 0.193245 0.284284 0.298218 0.308764 0.240965 0.255503 0.267553 0.193245 0.208208 0.221648 0.374782 0.377566 0.375672 0.344677 0.349438 0.350023 0.308764 0.315733 0.31912 0.375672 0.369298 0.358715 0.350023 0.346515 0.339073 0.31912 0.318879 0.31504 0.308764 0.315733 0.31912 0.267553 0.276847 0.283235 0.221648 0.233246 0.242695 0.31912 0.318879 0.31504 0.283235 0.286536 0.286646 0.242695 0.249686 0.253967 0.00118696 0.022027 0.0425313 0.00118695 0.0142743 0.0272366 0.00118695 0.00636758 0.0116285 0.0425313 0.062762 0.0827616 0.0272366 0.040323 0.0537566 0.0116285 0.017399 0.02