# vtk DataFile Version 3.0
#This file was generated by the deal.II library on 2016/6/23 at 10:40:17
ASCII
DATASET UNSTRUCTURED_GRID

POINTS 11520 double
0 0.707107 -0.707107
0 0.671559 -0.740951
0 0.634393 -0.77301
0.0327191 0.706728 -0.706728
0.0338735 0.6713 -0.740411
0.0349471 0.634265 -0.772326
0.0654031 0.705593 -0.705593
0.0677075 0.670272 -0.739021
0.0698515 0.633361 -0.770697
0 0.634393 -0.77301
0 0.595699 -0.803208
0 0.55557 -0.83147
0.0349471 0.634265 -0.772326
0.0359397 0.595701 -0.802402
0.0368463 0.555709 -0.83056
0.0698515 0.633361 -0.770697
0.0718322 0.594933 -0.800559
0.0736425 0.555093 -0.828522
0.0654031 0.705593 -0.705593
0.0677075 0.670272 -0.739021
0.0698515 0.633361 -0.770697
0.0980171 0.703702 -0.703702
0.10146 0.668482 -0.736776
0.104666 0.63169 -0.768123
0.130526 0.701057 -0.701057
0.135096 0.665925 -0.733685
0.139352 0.629247 -0.764611
0.0698515 0.633361 -0.770697
0.0718322 0.594933 -0.800559
0.0736425 0.555093 -0.828522
0.104666 0.63169 -0.768123
0.107628 0.593405 -0.797676
0.110339 0.553723 -0.825358
0.139352 0.629247 -0.764611
0.143285 0.59111 -0.793763
0.146885 0.551601 -0.821073
0 0.55557 -0.83147
0 0.514103 -0.857729
0 0.471397 -0.881921
0.0368463 0.555709 -0.83056
0.0376788 0.51434 -0.856758
0.0384209 0.471734 -0.880904
0.0736425 0.555093 -0.828522
0.0753035 0.513846 -0.854571
0.0767851 0.471374 -0.878585
0 0.471397 -0.881921
0 0.427555 -0.903989
0 0.382683 -0.92388
0.0384209 0.471734 -0.880904
0.0390728 0.427987 -0.90294
0.039631 0.383211 -0.92281
0.0767851 0.471374 -0.878585
0.0780855 0.427765 -0.900511
0.0791997 0.383135 -0.920291
0.0736425 0.555093 -0.828522
0.0753035 0.513846 -0.854571
0.0767851 0.471374 -0.878585
0.110339 0.553723 -0.825358
0.112818 0.512629 -0.851166
0.115031 0.470322 -0.874966
0.146885 0.551601 -0.821073
0.150172 0.510685 -0.846552
0.153108 0.468576 -0.870054
0.0767851 0.471374 -0.878585
0.0780855 0.427765 -0.900511
0.0791997 0.383135 -0.920291
0.115031 0.470322 -0.874966
0.116976 0.426895 -0.896703
0.118644 0.382458 -0.916324
0.153108 0.468576 -0.870054
0.155686 0.425374 -0.891526
0.157902 0.381179 -0.910917
0.130526 0.701057 -0.701057
0.135096 0.665925 -0.733685
0.139352 0.629247 -0.764611
0.162895 0.697662 -0.697662
0.168553 0.662638 -0.729727
0.173825 0.626095 -0.760125
0.19509 0.69352 -0.69352
0.201816 0.658592 -0.724932
0.208087 0.622181 -0.754712
0.139352 0.629247 -0.764611
0.143285 0.59111 -0.793763
0.146885 0.551601 -0.821073
0.173825 0.626095 -0.760125
0.178705 0.588109 -0.788791
0.183177 0.548775 -0.815655
0.208087 0.622181 -0.754712
0.213895 0.584352 -0.782804
0.21922 0.545206 -0.809131
0.19509 0.69352 -0.69352
0.201816 0.658592 -0.724932
0.208087 0.622181 -0.754712
0.227076 0.688635 -0.688635
0.234841 0.6538 -0.719302
0.242087 0.617515 -0.748378
0.258819 0.683013 -0.683013
0.267597 0.648259 -0.712848
0.275792 0.612096 -0.741132
0.208087 0.622181 -0.754712
0.213895 0.584352 -0.782804
0.21922 0.545206 -0.809131
0.242087 0.617515 -0.748378
0.248802 0.57985 -0.775804
0.254967 0.540898 -0.801512
0.275792 0.612096 -0.741132
0.283388 0.574602 -0.767805
0.290368 0.535858 -0.792807
0.146885 0.551601 -0.821073
0.150172 0.510685 -0.846552
0.153108 0.468576 -0.870054
0.183177 0.548775 -0.815655
0.187262 0.508071 -0.840712
0.190917 0.466195 -0.863836
0.21922 0.545206 -0.809131
0.224086 0.504738 -0.833682
0.228445 0.463127 -0.856345
0.153108 0.468576 -0.870054
0.155686 0.425374 -0.891526
0.157902 0.381179 -0.910917
0.190917 0.466195 -0.863836
0.194138 0.423236 -0.884975
0.196911 0.379301 -0.904078
0.228445 0.463127 -0.856345
0.232291 0.420453 -0.877075
0.235611 0.376827 -0.895818
0.21922 0.545206 -0.809131
0.224086 0.504738 -0.833682
0.228445 0.463127 -0.856345
0.254967 0.540898 -0.801512
0.260586 0.500697 -0.825468
0.265628 0.459382 -0.847591
0.290368 0.535858 -0.792807
0.296716 0.495948 -0.816085
0.302418 0.45496 -0.837589
0.228445 0.463127 -0.856345
0.232291 0.420453 -0.877075
0.235611 0.376827 -0.895818
0.265628 0.459382 -0.847591
0.270084 0.417035 -0.867834
0.273941 0.37376 -0.886149
0.302418 0.45496 -0.837589
0.307463 0.412982 -0.85727
0.311839 0.370106 -0.875087
0 0.382683 -0.92388
0 0.33689 -0.941544
0 0.290285 -0.95694
0.039631 0.383211 -0.92281
0.0401657 0.337373 -0.940514
0.0406034 0.290719 -0.955946
0.0791997 0.383135 -0.920291
0.0802667 0.337312 -0.937965
0.0811399 0.290674 -0.953375
0 0.290285 -0.95694
0 0.24298 -0.970031
0 0.19509 -0.980785
0.0406034 0.290719 -0.955946
0.0409432 0.243357 -0.969072
0.0411841 0.195407 -0.979857
0.0811399 0.290674 -0.953375
0.0818178 0.243327 -0.966487
0.0822982 0.195391 -0.977266
0.0791997 0.383135 -0.920291
0.0802667 0.337312 -0.937965
0.0811399 0.290674 -0.953375
0.118644 0.382458 -0.916324
0.120237 0.336711 -0.9339
0.121541 0.290153 -0.949231
0.157902 0.381179 -0.910917
0.160013 0.335567 -0.928327
0.161742 0.289153 -0.94352
0.0811399 0.290674 -0.953375
0.0818178 0.243327 -0.966487
0.0822982 0.195391 -0.977266
0.121541 0.290153 -0.949231
0.122554 0.242891 -0.962281
0.123273 0.195044 -0.973017
0.161742 0.289153 -0.94352
0.163085 0.242049 -0.95646
0.164038 0.194366 -0.967116
0 0.19509 -0.980785
0 0.14673 -0.989177
0 0.0980171 -0.995185
0.0411841 0.195407 -0.979857
0.0413301 0.14697 -0.988277
0.0413762 0.0981775 -0.994308
0.0822982 0.195391 -0.977266
0.0825897 0.146958 -0.985689
0.0826816 0.0981697 -0.991729
0 0.0980171 -0.995185
0 0.0490677 -0.998795
0 0 -1
0.0413762 0.0981775 -0.994308
0.0413222 0.0491479 -0.997936
0.0411684 0 -0.999152
0.0826816 0.0981697 -0.991729
0.082574 0.0491442 -0.995372
0.0822669 0 -0.99661
0.0822982 0.195391 -0.977266
0.0825897 0.146958 -0.985689
0.0826816 0.0981697 -0.991729
0.123273 0.195044 -0.973017
0.123707 0.146696 -0.981416
0.123844 0.0979937 -0.987451
0.164038 0.194366 -0.967116
0.164613 0.146183 -0.975466
0.164795 0.0976499 -0.981482
0.0826816 0.0981697 -0.991729
0.082574 0.0491442 -0.995372
0.0822669 0 -0.99661
0.123844 0.0979937 -0.987451
0.123684 0.0490557 -0.991108
0.123226 0 -0.992379
0.164795 0.0976499 -0.981482
0.164582 0.0488834 -0.985151
0.163976 0 -0.986464
0.157902 0.381179 -0.910917
0.160013 0.335567 -0.928327
0.161742 0.289153 -0.94352
0.196911 0.379301 -0.904078
0.199515 0.333897 -0.921253
0.201647 0.287703 -0.936251
0.235611 0.376827 -0.895818
0.238694 0.331689 -0.912692
0.24122 0.285779 -0.927439
0.161742 0.289153 -0.94352
0.163085 0.242049 -0.95646
0.164038 0.194366 -0.967116
0.201647 0.287703 -0.936251
0.203306 0.240822 -0.949037
0.204485 0.193372 -0.95958
0.24122 0.285779 -0.927439
0.243186 0.239193 -0.940025
0.244586 0.192049 -0.950418
0.235611 0.376827 -0.895818
0.238694 0.331689 -0.912692
0.24122 0.285779 -0.927439
0.273941 0.37376 -0.886149
0.277482 0.328952 -0.90266
0.280387 0.283387 -0.917101
0.311839 0.370106 -0.875087
0.315821 0.325684 -0.891172
0.319092 0.280529 -0.905253
0.24122 0.285779 -0.927439
0.243186 0.239193 -0.940025
0.244586 0.192049 -0.950418
0.280387 0.283387 -0.917101
0.282654 0.237167 -0.92944
0.284272 0.190402 -0.939647
0.319092 0.280529 -0.905253
0.321646 0.234745 -0.9173
0.323477 0.188432 -0.927284
0.164038 0.194366 -0.967116
0.164613 0.146183 -0.975466
0.164795 0.0976499 -0.981482
0.204485 0.193372 -0.95958
0.205203 0.145431 -0.967854
0.205435 0.0971456 -0.973837
0.244586 0.192049 -0.950418
0.245441 0.144431 -0.958592
0.245724 0.0964752 -0.964527
0.164795 0.0976499 -0.981482
0.164582 0.0488834 -0.985151
0.163976 0 -0.986464
0.205435 0.0971456 -0.973837
0.205184 0.0486302 -0.977514
0.204448 0 -0.978877
0.245724 0.0964752 -0.964527
0.245435 0.048294 -0.968209
0.244574 0 -0.969631
0.244586 0.192049 -0.950418
0.245441 0.144431 -0.958592
0.245724 0.0964752 -0.964527
0.284272 0.190402 -0.939647
0.285255 0.143185 -0.947696
0.285584 0.09564 -0.95357
0.323477 0.188432 -0.927284
0.324581 0.141696 -0.935184
0.324955 0.0946412 -0.940982
0.245724 0.0964752 -0.964527
0.245435 0.048294 -0.968209
0.244574 0 -0.969631
0.285584 0.09564 -0.95357
0.285261 0.0478747 -0.957253
0.284284 0 -0.95874
0.324955 0.0946412 -0.940982
0.324599 0.0473739 -0.944665
0.323513 0 -0.946224
0.258819 0.683013 -0.683013
0.267597 0.648259 -0.712848
0.275792 0.612096 -0.741132
0.290285 0.676659 -0.676659
0.299892 0.642098 -0.705531
0.308865 0.606174 -0.73291
0.321439 0.669581 -0.669581
0.331846 0.635209 -0.697415
0.341567 0.599526 -0.72381
0.275792 0.612096 -0.741132
0.283388 0.574602 -0.767805
0.290368 0.535858 -0.792807
0.308865 0.606174 -0.73291
0.317189 0.568953 -0.758738
0.324842 0.530523 -0.782958
0.341567 0.599526 -0.72381
0.35059 0.56259 -0.748718
0.358889 0.524492 -0.77208
0.321439 0.669581 -0.669581
0.331846 0.635209 -0.697415
0.341567 0.599526 -0.72381
0.35225 0.661785 -0.661785
0.363414 0.627607 -0.688505
0.373849 0.592167 -0.713845
0.382683 0.653282 -0.653282
0.394568 0.619295 -0.678815
0.405684 0.584101 -0.703027
0.341567 0.599526 -0.72381
0.35059 0.56259 -0.748718
0.358889 0.524492 -0.77208
0.373849 0.592167 -0.713845
0.383541 0.555528 -0.737756
0.392464 0.517772 -0.760187
0.405684 0.584101 -0.703027
0.416009 0.54777 -0.725868
0.425524 0.510371 -0.747296
0.290368 0.535858 -0.792807
0.296716 0.495948 -0.816085
0.302418 0.45496 -0.837589
0.324842 0.530523 -0.782958
0.331838 0.490924 -0.805529
0.338129 0.450278 -0.826389
0.358889 0.524492 -0.77208
0.366504 0.485227 -0.79387
0.373359 0.444956 -0.814013
0.302418 0.45496 -0.837589
0.307463 0.412982 -0.85727
0.311839 0.370106 -0.875087
0.338129 0.450278 -0.826389
0.343708 0.408666 -0.845492
0.348555 0.366182 -0.862798
0.373359 0.444956 -0.814013
0.379445 0.403749 -0.832471
0.384743 0.361703 -0.849202
0.358889 0.524492 -0.77208
0.366504 0.485227 -0.79387
0.373359 0.444956 -0.814013
0.392464 0.517772 -0.760187
0.400659 0.478874 -0.781122
0.408046 0.439007 -0.800482
0.425524 0.510371 -0.747296
0.434264 0.471865 -0.767306
0.442152 0.432434 -0.785813
0.373359 0.444956 -0.814013
0.379445 0.403749 -0.832471
0.384743 0.361703 -0.849202
0.408046 0.439007 -0.800482
0.414616 0.398245 -0.818227
0.420348 0.356676 -0.83432
0.442152 0.432434 -0.785813
0.449175 0.392156 -0.80278
0.455317 0.351109 -0.818174
[...]
POINT_DATA 11520
SCALARS solution double 1
LOOKUP_TABLE default
0 0 0 -0.0306081 -0.0259635 -0.0207219 -0.0606419 -0.0513961 -0.040976 0 0 0 -0.0207219 -0.014956 -0.00876459 -0.040976 -0.0295261 -0.0172454 -0.0606419 -0.0513961 -0.040976 -0.0895452 -0.0757377 -0.0602218 -0.11677 -0.0984571 -0.0779487 -0.040976 -0.0295261 -0.0172454 -0.0602218 -0.0432117 -0.025001 -0.0779487 -0.0555418 -0.0316186 0 0 0 -0.00876459 -0.00225762 0.00442509 -0.0172454 -0.00433599 0.0089112 0 0 0 0.00442509 0.0111339 0.0177034 0.0089112 0.0222043 0.0352157 -0.0172454 -0.00433599 0.0089112 -0.025001 -0.00587622 0.0137218 -0.0316186 -0.00654128 0.0191022 0.0089112 0.0222043 0.0352157 0.0137218 0.0333635 0.0525733 0.0191022 0.0447525 0.0698033 -0.11677 -0.0984571 -0.0779487 -0.141821 -0.119064 -0.0937077 -0.164222 -0.137115 -0.107074 -0.0779487 -0.0555418 -0.0316186 -0.0937077 -0.0661095 -0.0367455 -0.107074 -0.0745312 -0.0400537 -0.164222 -0.137115 -0.107074 -0.183578 -0.152217 -0.117689 -0.199523 -0.164051 -0.125265 -0.107074 -0.0745312 -0.0400537 -0.117689 -0.080495 -0.0412795 -0.125265 -0.0837574 -0.0402366 -0.0316186 -0.00654128 0.0191022 -0.0367455 -0.00606851 0.0252218 -0.0400537 -0.00418482 0.0322811 0.0191022 0.0447525 0.0698033 0.0252218 0.0564609 0.0869194 0.0322811 0.0685906 0.10391 -0.0400537 -0.00418482 0.0322811 -0.0412795 -0.000699261 0.0403991 -0.0402366 0.00451945 0.0496439 0.0322811 0.0685906 0.10391 0.0403991 0.0811804 0.120742 0.0496439 0.0942338 0.137346 0 0 0 0.0177034 0.0240256 0.0298883 0.0352157 0.0477698 0.0594064 0 0 0 0.0298883 0.0351264 0.0395883 0.0594064 0.0698023 0.0786559 0.0352157 0.0477698 0.0594064 0.0525733 0.0711404 0.0883385 0.0698033 0.0940464 0.116476 0.0594064 0.0698023 0.0786559 0.0883385 0.103694 0.116768 0.116476 0.136483 0.153507 0 0 0 0.0395883 0.0431477 0.0456947 0.0786559 0.0857209 0.0907772 0 0 0 0.0456947 0.0471542 0.0474877 0.0907772 0.0936771 0.0943433 0.0786559 0.0857209 0.0907772 0.116768 0.127199 0.134666 0.153507 0.167086 0.176809 0.0907772 0.0936771 0.0943433 0.134666 0.138954 0.139949 0.176809 0.182399 0.183712 0.0698033 0.0940464 0.116476 0.0869194 0.116372 0.14358 0.10391 0.138024 0.169476 0.116476 0.136483 0.153507 0.14358 0.167824 0.188437 0.169476 0.197461 0.221232 0.10391 0.138024 0.169476 0.120742 0.158877 0.193957 0.137346 0.178801 0.216836 0.169476 0.197461 0.221232 0.193957 0.225117 0.251554 0.216836 0.250544 0.279106 0.153507 0.167086 0.176809 0.188437 0.204877 0.216655 0.221232 0.24018 0.253762 0.176809 0.182399 0.183712 0.216655 0.223447 0.225078 0.253762 0.261616 0.263543 0.221232 0.24018 0.253762 0.251554 0.272602 0.287699 0.279106 0.301815 0.318114 0.253762 0.261616 0.263543 0.287699 0.296456 0.298661 0.318114 0.327599 0.33005 -0.199523 -0.164051 -0.125265 -0.211789 -0.172446 -0.129801 -0.220161 -0.177207 -0.13106 -0.125265 -0.0837574 -0.0402366 -0.129801 -0.0844952 -0.0373017 -0.13106 -0.082409 -0.0320855 -0.220161 -0.177207 -0.13106 -0.224517 -0.178253 -0.128999 -0.224814 -0.17558 -0.123658 -0.13106 -0.082409 -0.0320855 -0.128999 -0.0775013 -0.024618 -0.123658 -0.0698438 -0.0150098 -0.0402366 0.00451945 0.0496439 -0.0373017 0.011004 0.0594663 -0.0320855 0.0191567 0.0702824 0.0496439 0.0942338 0.137346 0.0594663 0.107157 0.153094 0.0702824 0.120354 0.168381 -0.0320855 0.0191567 0.0702824 -0.024618 0.028902 0.0819864 -0.0150098 0.0401121 0.0944333 0.0702824 0.120354 0.168381 0.0819864 0.133696 0.183068 0.0944333 0.14703 0.196989 -0.224814 -0.17558 -0.123658 -0.221083 -0.169317 -0.115246 -0.213465 -0.159597 -0.103898 -0.123658 -0.0698438 -0.0150098 -0.115246 -0.0596862 -0.00352729 -0.103898 -0.0471813 0.00965723 -0.213465 -0.159597 -0.103898 -0.202138 -0.146678 -0.089898 -0.187424 -0.130867 -0.0735816 -0.103898 -0.0471813 0.00965723 -0.089898 -0.032637 0.0242418 -0.0735816 -0.0163948 0.0398767 -0.0150098 0.0401121 0.0944333 -0.00352729 0.0524938 0.107329 0.00965723 0.0658859 0.120519 0.0944333 0.14703 0.196989 0.107329 0.160106 0.209963 0.120519 0.172754 0.221794 0.00965723 0.0658859 0.120519 0.0242418 0.0799803 0.133717 0.0398767 0.0944572 0.146634 0.120519 0.172754 0.221794 0.133717 0.184715 0.232277 0.146634 0.195746 0.241212 0.137346 0.178801 0.216836 0.153094 0.197106 0.237385 0.168381 0.214198 0.256002 0.216836 0.250544 0.279106 0.237385 0.273026 0.303197 0.256002 0.292912 0.324117 0.168381 0.214198 0.256002 0.183068 0.229917 0.272521 0.196989 0.244117 0.286808 0.256002 0.292912 0.324117 0.272521 0.310038 0.341706 0.286808 0.324283 0.355852 0.279106 0.301815 0.318114 0.303197 0.32722 0.344502 0.324117 0.348976 0.366893 0.318114 0.327599 0.33005 0.344502 0.354639 0.357402 0.366893 0.377472 0.380484 0.324117 0.348976 0.366893 0.341706 0.366923 0.385124 0.355852 0.38097 0.399119 0.366893 0.377472 0.380484 0.385124 0.395935 0.399137 0.399119 0.409956 0.413281 0.196989 0.244117 0.286808 0.209963 0.256607 0.298684 0.221794 0.267268 0.308099 0.286808 0.324283 0.355852 0.298684 0.335502 0.366448 0.308099 0.343695 0.373535 0.221794 0.267268 0.308099 0.232277 0.275944 0.314957 0.241212 0.28251 0.319201 0.308099 0.343695 0.373535 0.314957 0.348826 0.377133 0.319201 0.350903 0.377305 0.355852 0.38097 0.399119 0.366448 0.391043 0.408831 0.373535 0.397211 0.414346 0.399119 0.409956 0.413281 0.408831 0.419514 0.422909 0.414346 0.42469 0.428084 0.373535 0.397211 0.414346 0.377133 0.399542 0.415766 0.377305 0.398153 0.413247 0.414346 0.42469 0.428084 0.415766 0.425605 0.428931 0.413247 0.422441 0.425637 0 0 0 0.0474877 0.0471542 0.0456947 0.0943433 0.0936771 0.0907772 0 0 0 0.0456947 0.0431477 0.0395883 0.0907772 0.0857209 0.0786559 0.0943433 0.0936771 0.0907772 0.139949 0.138954 0.134666 0.183712 0.182399 0.176809 0.0907772 0.0857209 0.0786559 0.134666 0.127199 0.116768 0.176809 0.167086 0.153507 0 0 0 0.0395883 0.0351264 0.0298883 0.0786559 0.0698023 0.0594064 0 0 0 0.0298883 0.0240256 0.0177034 0.0594064 0.0477698 0.0352157 0.0786559 0.0698023 0.0594064 0.116768 0.103694 0.0883385 0.153507 0.136483 0.116476 0.0594064 0.0477698 0.0352157 0.0883385 0.0711404 0.0525733 0.116476 0.0940464 0.0698033 0.183712 0.182399 0.176809 0.225078 0.223447 0.216655 0.263543 0.261616 0.253762 0.176809 0.167086 0.153507 0.216655 0.204877 0.188437 0.253762 0.24018 0.221232 0.263543 0.261616 0.253762 0.298661 0.296456 0.287699 0.33005 0.327599 0.318114 0.253762 0.24018 0.221232 0.287699 0.272602 0.251554 0.318114 0.301815 0.279106 0.153507 0.136483 0.116476 0.188437 0.167824 0.14358 0.221232 0.197461 0.169476 0.116476 0.0940464 0.0698033 0.14358 0.116372 0.0869194 0.169476 0.138024 0.10391 0.221232 0.197461 0.169476 0.251554 0.225117 0.193957 0.279106 0.250544 0.216836 0.169476 0.138024 0.10391 0.193957 0.158877 0.120742 0.216836 0.178801 0.137346 0 0 0 0.0177034 0.0111339 0.00442508 0.0352157 0.0222043 0.0089112 0 0 0 0.00442508 -0.00225762 -0.00876459 0.0089112 -0.004336 -0.0172454 0.0352157 0.0222043 0.0089112 0.0525733 0.0333635 0.0137218 0.0698033 0.0447525 0.0191022 0.0089112 -0.004336 -0.0172454 0.0137218 -0.00587622 -0.025001 0.0191022 -0.00654128 -0.0316186 0 0 0 -0.00876459 -0.014956 -0.0207219 -0.0172454 -0.0295261 -0.040976 0 0 0 -0.0207219 -0.0259635 -0.0306081 -0.040976 -0.0513961 -0.0606419 -0.0172454 -0.0295261 -0.040976 -0.025001 -0.0432117 -0.0602218 -0.0316186 -0.0555418 -0.0779487 -0.040976 -0.0513961 -0.0606419 -0.0602218 -0.0757377 -0.0895452 -0.0779487 -0.0984571 -0.11677 0.0698033 0.0447525 0.0191022 0.0869194 0.0564609 0.0252218 0.10391 0.0685906 0.0322811 0.0191022 -0.00654128 -0.0316186 0.0252218 -0.00606851 -0.0367455 0.0322811 -0.00418483 -0.0400537 0.10391 0.0685906 0.0322811 0.120742 0.0811804 0.0403991 0.137346 0.0942338 0.0496439 0.0322811 -0.00418483 -0.0400537 0.0403991 -0.00069927 -0.0412795 0.0496439 0.00451944 -0.0402366 -0.0316186 -0.0555418 -0.0779487 -0.0367455 -0.0661095 -0.0937077 -0.0400537 -0.0745312 -0.107074 -0.0779487 -0.0984571 -0.11677 -0.0937077 -0.119064 -0.141821 -0.107074 -0.137115 -0.164222 -0.0400537 -0.0745312 -0.107074 -0.0412795 -0.080495 -0.117689 -0.0402366 -0.0837575 -0.125265 -0.107074 -0.137115 -0.164222 -0.117689 -0.152217 -0.183578 -0.125265 -0.164051 -0.199523 0.33005 0.327599 0.318114 0.357402 0.354639 0.344502 0.380484 0.377472 0.366893 0.318114 0.301815 0.279106 0.344502 0.32722 0.303197 0.366893 0.348976 0.324117 0.380484 0.377472 0.366893 0.399137 0.395935 0.385124 0.413281 0.409956 0.399119 0.366893 0.348976 0.324117 0.385124 0.366923 0.341706 0.399119 0.38097 0.355852 0.279106 0.250544 0.216836 0.303197 0.273026 0.237385 0.324117 0.292912 0.256002 0.216836 0.178801 0.137346 0.237385 0.197106 0.153094 0.256002 0.214198 0.168381 0.324117 0.292912 0.256002 0.341706 0.310038 0.272521 0.355852 0.324283 0.286808 0.256002 0.214198 0.168381 0.272521 0.229917 0.183068 0.286808 0.244117 0.196989 0.413281 0.409956 0.399119 0.422909 0.419514 0.408831 0.428084 0.42469 0.414346 0.399119 0.38097 0.355852 0.408831 0.391043 0.366448 0.414346 0.397211 0.373535 0.428084 0.42469 0.414346 0.428931 0.425605 0.415766 0.425637 0.422441 0.413247 0.414346 0.397211 0.373535 0.415766 0.399542 0.377133 0.413247 0.398153 0.377305 0.355852 0.324283 0.286808 0.366448 0.335502 0.298684 0.373535 0.343695 0.308099 0.286808 0.244117 0.196989 0.298684 0.256607 0.209963 0.308099 0.267268 0.221794 0.373535 0.343695 0.308099 0.377133 0.348826 0.314957 0.377305 0.350903 0.319201 0.308099 0.267268 0.221794 0.314957 0.275944 0.232277 0.319201 0.28251 0.241212 0.137346 0.0942338 0.0496439 0.153094 0.107157 0.0594663 0.168381 0.120354 0.0702823 0.0496439 0.00451944 -0.0402366 0.0594663 0.0110039 -0.0373017 0.0702823 0.0191567 -0.0320855 0.168381 0.120354 0.0702823 0.183068 0.133696 0.0819863 0.196989 0.14703 0.0944333 0.0702823 0.0191567 -0.0320855 0.0819863 0.028902 -0.024618 0.0944333 0.0401121 -0.0150098 -0.0402366 -0.0837575 -0.125265 -0.0373017 -0.0844952 -0.129801 -0.0320855 -0.0824091 -0.13106 -0.125265 -0.164051 -0.199523 -0.129801 -0.172446 -0.211789 -0.13106 -0.177207 -0.220161 -0.0320855 -0.0824091 -0.13106 -0.024618 -0.0775014 -0.128999 -0.0150098 -0.0698438 -0.123658 -0.13106 -0.177207 -0.220161 -0.128999 -0.178253 -0.224517 -0.123658 -0.17558 -0.224814 0.196989 0.14703 0.0944333 0.209963 0.160106 0.107329 0.221794 0.172754 0.120519 0.0944333 0.0401121 -0.0150098 0.107329 0.0524937 -0.00352731 0.120519 0.0658859 0.00965722 0.221794 0.172754 0.120519 0.232277 0.184714 0.133717 0.241212 0.195746 0.146634 0.120519 0.0658859 0.00965722 0.133717 0.0799803 0.0242418 0.146634 0.0944572 0.0398767 -0.0150098 -0.0698438 -0.123658 -0.00352731 -0.0596863 -0.115246 0.00965722 -0.0471814 -0.103898 -0.123658 -0.17558 -0.224814 -0.115246 -0.169317 -0.221083 -0.103898 -0.159597 -0.213465 0.00965722 -0.0471814 -0.103898 0.0242418 -0.0326371 -0.089898 0.0398767 -0.0163948 -0.0735817 -0.103898 -0.159597 -0.213465 -0.089898 -0.146678 -0.202138 -0.0735817 -0.130868 -0.187424 -0.187424 -0.130867 -0.0735816 -0.169625 -0.112859 -0.0559843 -0.149221 -0.0928697 -0.0370437 -0.0735816 -0.0163948 0.0398767 -0.0559843 0.000208913 0.0549973 -0.0370437 0.0175719 0.0703378 -0.149221 -0.0928697 -0.0370437 -0.126615 -0.0713698 -0.0171878 -0.102395 -0.0488247 0.00314976 -0.0370437 0.0175719 0.0703378 -0.0171878 0.0353013 0.0855633 0.00314976 0.0530203 0.100347 0.0398767 0.0944572 0.146634 0.0549973 0.107706 0.157715 0.0703378 0.120694 0.168111 0.146634 0.195746 0.241212 0.157715 0.204469 0.247497 0.168111 0.212142 0.252426 0.0703378 0.120694 0.168111 0.0855633 0.133134 0.177594 0.100347 0.144767 0.185967 0.168111 0.212142 0.252426 0.177594 0.218601 0.255896 0.185967 0.223707 0.257825 -0.102395 -0.0488247 0.00314976 -0.0770268 -0.0257796 0.0234699 -0.0511602 -0.00269814 0.0433792 0.00314976 0.0530203 0.100347 0.0234699 0.0702768 0.114305 0.0433792 0.0867596 0.127194 -0.0511602 -0.00269814 0.0433792 -0.0252724 0.0198941 0.062436 -1.44864e-05 0.041539 0.0802461 0.0433792 0.0867596 0.127194 0.062436 0.102095 0.138719 0.0802461 0.11597 0.148633 0.100347 0.144767 0.185967 0.114305 0.155289 0.193009 0.127194 0.164512 0.198583 0.185967 0.223707 0.257825 0.193009 0.227319 0.25814 0.198583 0.229344 0.256794 0.127194 0.164512 0.198583 0.138719 0.172211 0.202531 0.148633 0.17821 0.204744 0.198583 0.229344 0.256794 0.202531 0.229692 0.253754 0.204744 0.228308 0.249018 0.241212 0.28251 0.319201 0.247497 0.2864 0.320809 0.252426 0.288671 0.320583 0.319201 0.350903 0.377305 0.320809 0.350434 0.375047 0.320583 0.347961 0.370655 0.252426 0.288671 0.320583 0.255896 0.289275 0.318528 0.257825 0.288185 0.314666 0.320583 0.347961 0.370655 0.318528 0.343536 0.364218 0.314666 0.337223 0.355836 0.377305 0.398153 0.413247 0.375047 0.394456 0.408522 0.370655 0.38853 0.401502 0.413247 0.422441 0.425637 0.408522 0.417132 0.420212 0.401502 0.409494 0.412452 0.370655 0.38853 0.401502 0.364218 0.380496 0.392332 0.355836 0.370481 0.38116 0.401502 0.409494 0.412452 0.392332 0.399683 0.40251 0.38116 0.387859 0.390552 0.257825 0.288185 0.314666 0.25814 0.285393 0.309051 0.256794 0.280902 0.301725 0.314666 0.337223 0.355836 0.309051 0.32913 0.345666 0.301725 0.319333 0.333805 0.256794 0.280902 0.301725 0.253754 0.274734 0.292758 0.249018 0.266934 0.282232 0.301725 0.319333 0.333805 0.292758 0.307939 0.32039 0.282232 0.295064 0.305566 0.355836 0.370481 0.38116 0.345666 0.358671 0.368185 0.333805 0.345187 0.353549 0.38116 0.387859 0.390552 0.368185 0.374216 0.376754 0.353549 0.35892 0.361301 0.333805 0.345187 0.353549 0.32039 0.330195 0.337439 0.305566 0.313858 0.320028 0.353549 0.35892 0.361301 0.337439 0.342164 0.344379 0.320028 0.324132 0.326185 -1.44864e-05 0.041539 0.0802461 0.0241697 0.0616987 0.0963297 0.0466935 0.0800591 0.110497 0.0802461 0.11597 0.148633 0.0963297 0.127973 0.156626 0.110497 0.138018 0.162676 0.0466935 0.0800591 0.110497 0.0671863 0.0962395 0.122462 0.085186 0.109961 0.13202 0.110497 0.138018 0.162676 0.122462 0.145896 0.166644 0.13202 0.151472 0.168452 0.148633 0.17821 0.204744 0.156626 0.18233 0.205175 0.162676 0.184564 0.203814 0.204744 0.228308 0.249018 0.205175 0.225284 0.242813 0.203814 0.220586 0.235065 0.162676 0.184564 0.203814 0.166644 0.184835 0.200638 0.168452 0.183119 0.195664 0.203814 0.220586 0.235065 0.200638 0.214236 0.225834 0.195664 0.20629 0.215206 0.085186 0.109961 0.13202 0.100429 0.120965 0.138994 0.112626 0.129113 0.143315 0.13202 0.151472 0.168452 0.138994 0.15464 0.168062 0.143315 0.155386 0.165498 0.112626 0.129113 0.143315 0.12164 0.134303 0.144944 0.127386 0.136533 0.143921 0.143315 0.155386 0.165498 0.144944 0.153722 0.160815 0.143921 0.149733 0.15412 0.168452 0.183119 0.195664 0.168062 0.179434 0.188957 0.165498 0.173832 0.180591 0.195664 0.20629 0.215206 0.188957 0.196838 0.203288 0.180591 0.185982 0.190209 0.165498 0.173832 0.180591 0.160815 0.166404 0.170688 0.15412 0.157285 0.159391 0.180591 0.185982 0.190209 0.170688 0.173862 0.176121 0.159391 0.16064 0.161193 0.249018 0.266934 0.282232 0.242813 0.257825 0.27055 0.235065 0.24731 0.257593 0.282232 0.295064 0.305566 0.27055 0.281158 0.289808 0.257593 0.266102 0.273005 0.235065 0.24731 0.257593 0.225834 0.235483 0.243488 0.215206 0.222454 0.22836 0.257593 0.266102 0.273005 0.243488 0.250041 0.255316 0.22836 0.23312 0.236903 0.305566 0.313858 0.320028 0.289808 0.296618 0.301703 0.273005 0.278417 0.282472 0.320028 0.324132 0.326185 0.301703 0.305126 0.306911 0.282472 0.285241 0.286757 0.273005 0.278417 0.282472 0.255316 0.259433 0.262529 0.236903 0.239835 0.242047 0.282472 0.285241 0.286757 0.262529 0.264677 0.265916 0.242047 0.243618 0.244586 0.215206 0.222454 0.22836 0.203288 0.208371 0.212398 0.190209 0.193362 0.195719 0.22836 0.23312 0.236903 0.212398 0.215553 0.218004 0.195719 0.197456 0.198728 0.190209 0.193362 0.195719 0.176121 0.177592 0.178501 0.161193 0.161235 0.160915 0.195719 0.197456 0.198728 0.178501 0.179008 0.179255 0.160915 0.160385 0.159765 0.236903 0.239835 0.242047 0.218004 0.219863 0.221265 0.198728 0.199638 0.200316 0.242047 0.243618 0.244586 0.221265 0.222283 0.222962 0.200316 0.200834 0.201235 0.198728 0.199638 0.200316 0.179255 0.179348 0.179397 0.159765 0.15917 0.158681 0.200316 0.200834 0.201235 0.179397 0.179467 0.179602 0.158681 0.158363 0.158252 0.425637 0.422441 0.413247 0.420212 0.417132 0.408522 0.412452 0.409494 0.401502 0.413247 0.398153 0.377305 0.408522 0.394456 0.375047 0.401502 0.38853 0.370655 0.412452 0.409494 0.401502 0.40251 0.399683 0.392332 0.390552 0.387859 0.38116 0.401502 0.38853 0.370655 0.392332 0.380496 0.364218 0.38116 0.370481 0.355836 0.377305 0.350903 0.319201 0.375047 0.350434 0.320809 0.370655 0.347961 0.320583 0.319201 0.28251 0.241212 0.320809 0.2864 0.247497 0.320583 0.288671 0.252426 0.370655 0.347961 0.320583 0.364218 0.343536 0.318528 0.355836 0.337223 0.314666 0.320583 0.288671 0.252426 0.318528 0.289275 0.255896 0.314666 0.288185 0.257825 0.390552 0.387859 0.38116 0.376754 0.374216 0.368185 0.361301 0.35892 0.353549 0.38116 0.370481 0.355836 0.368185 0.358671 0.345666 0.353549 0.345187 0.333805 0.361301 0.35892 0.353549 0.344379 0.342164 0.337439 0.326185 0.324132 0.320028 0.353549 0.345187 0.333805 0.337439 0.330195 0.32039 0.320028 0.313858 0.305566 0.355836 0.337223 0.314666 0.345666 0.32913 0.309051 0.333805 0.319333 0.301725 0.314666 0.288185 0.257825 0.309051 0.285393 0.25814 0.301725 0.280902 0.256794 0.333805 0.319333 0.301725 0.32039 0.307939 0.292758 0.305566 0.295064 0.282232 0.301725 0.280902 0.256794 0.292758 0.274734 0.253754 0.282232 0.266934 0.249018 0.241212 0.195746 0.146634 0.247497 0.204469 0.157715 0.252426 0.212142 0.168111 0.146634 0.0944572 0.0398767 0.157715 0.107706 0.0549973 0.168111 0.120694 0.0703378 0.252426 0.212142 0.168111 0.255896 0.218601 0.177594 0.257825 0.223707 0.185967 0.168111 0.120694 0.0703378 0.177594 0.133134 0.0855633 0.185967 0.144767 0.100347 0.0398767 -0.0163948 -0.0735817 0.0549973 0.000208894 -0.0559843 0.0703378 0.0175718 -0.0370437 -0.0735817 -0.130868 -0.187424 -0.0559843 -0.112859 -0.169625 -0.0370437 -0.0928697 -0.149221 0.0703378 0.0175718 -0.0370437 0.0855633 0.0353013 -0.0171878 0.100347 0.0530202 0.00314974 -0.0370437 -0.0928697 -0.149221 -0.0171878 -0.0713699 -0.126615 0.00314974 -0.0488247 -0.102395 0.257825 0.223707 0.185967 0.25814 0.227319 0.193009 0.256794 0.229344 0.198583 0.185967 0.144767 0.100347 0.193009 0.155289 0.114305 0.198583 0.164512 0.127194 0.256794 0.229344 0.198583 0.253754 0.229692 0.202531 0.249018 0.228308 0.204744 0.198583 0.164512 0.127194 0.202531 0.172211 0.138719 0.204744 0.17821 0.148633 0.100347 0.0530202 0.00314974 0.114305 0.0702767 0.0234699 0.127194 0.0867596 0.0433792 0.00314974 -0.0488247 -0.102395 0.0234699 -0.0257796 -0.0770268 0.0433792 -0.00269816 -0.0511603 0.127194 0.0867596 0.0433792 0.138719 0.102095 0.0624359 0.148633 0.11597 0.0802461 0.0433792 -0.00269816 -0.0511603 0.0624359 0.0198941 -0.0252725 0.0802461 0.041539 -1.45002e-05 0.326185 0.324132 0.320028 0.306911 0.305126 0.301703 0.286757 0.285241 0.282472 0.320028 0.313858 0.305566 0.301703 0.296618 0.289808 0.282472 0.278417 0.273005 0.286757 0.285241 0.282472 0.265916 0.264677 0.262529 0.244586 0.243618 0.242047 0.282472 0.278417 0.273005 0.262529 0.259433 0.255316 0.242047 0.239835 0.236903 0.305566 0.295064 0.282232 0.289808 0.281158 0.27055 0.273005 0.266102 0.257593 0.282232 0.266934 0.249018 0.27055 0.257825 0.242813 0.257593 0.24731 0.235065 0.273005 0.266102 0.257593 0.255316 0.250041 0.243488 0.236903 0.23312 0.22836 0.257593 0.24731 0.235065 0.243488 0.235483 0.225834 0.22836 0.222454 0.215206 0.244586 0.243618 0.242047 0.222962 0.222283 0.221265 0.201235 0.200834 0.200316 0.242047 0.239835 0.236903 0.221265 0.219863 0.218004 0.200316 0.199638 0.198728 0.201235 0.200834 0.200316 0.179602 0.179467 0.179397 0.158252 0.158363 0.158681 0.200316 0.199638 0.198728 0.179397 0.179348 0.179255 0.158681 0.15917 0.159765 0.236903 0.23312 0.22836 0.218004 0.215553 0.212398 0.198728 0.197456 0.195719 0.22836 0.222454 0.215206 0.212398 0.208371 0.203288 0.195719 0.193362 0.190209 0.198728 0.197456 0.195719 0.179255 0.179008 0.178501 0.159765 0.160385 0.160915 0.195719 0.193362 0.190209 0.178501 0.177592