# vtk DataFile Version 3.0
#This file was generated by the deal.II library on 2016/6/23 at 15:08:05
ASCII
DATASET UNSTRUCTURED_GRID

POINTS 24 double
0 0 1
1 0 1
0 1 1
1 1 1
1 0 1
1 0 0
1 1 1
1 1 0
0 1 1
1 1 1
0 1 0
1 1 0
0 0 1
0 0 0
0 1 1
0 1 0
0 0 1
1 0 1
0 0 0
1 0 0
0 0 0
0 1 0
1 0 0
1 1 0

CELLS 6 30
4	0	1	3	2
4	4	5	7	6
4	8	9	11	10
4	12	13	15	14
4	16	17	19	18
4	20	21	23	22

CELL_TYPES 6
 9 9 9 9 9 9
POINT_DATA 24
SCALARS level double 1
LOOKUP_TABLE default
0 0 0 0 0 0 0 0 0 0 0 0 0 0 0 0 0 0 0 0 0 0 0 0 
SCALARS manifold double 1
LOOKUP_TABLE default
-1 -1 -1 -1 -1 -1 -1 -1 -1 -1 -1 -1 -1 -1 -1 -1 -1 -1 -1 -1 -1 -1 -1 -1 
SCALARS material double 1
LOOKUP_TABLE default
1 1 1 1 1 1 1 1 1 1 1 1 1 1 1 1 1 1 1 1 1 1 1 1 
SCALARS subdomain double 1
LOOKUP_TABLE default
0 0 0 0 0 0 0 0 0 0 0 0 0 0 0 0 0 0 0 0 0 0 0 0 
SCALARS level_subdomain double 1
LOOKUP_TABLE default
0 0 0 0 0 0 0 0 0 0 0 0 0 0 0 0 0 0 0 0 0 0 0 0 
