# vtk DataFile Version 3.0
#This file was generated by the deal.II library on 2016/6/28 at 11:41:56
ASCII
DATASET UNSTRUCTURED_GRID

POINTS 192 double
-0.543812 -0.372402 0.247946
-0.474591 0.140768 0.131122
0 -0.5 0.133975
0 0 0
-0.534117 -0.73573 0.583562
-0.543812 -0.372402 0.247946
0 -0.866025 0.5
0 -0.5 0.133975
-0.543146 -0.837299 1.06263
-0.534117 -0.73573 0.583562
0 -1 1
0 -0.866025 0.5
-0.477877 -0.696922 1.53473
-0.543146 -0.837299 1.06263
0 -0.866025 1.5
0 -1 1
-0.343005 -0.459304 1.81938
-0.477877 -0.696922 1.53473
0 -0.5 1.86603
0 -0.866025 1.5
-0.343005 -0.459304 1.81938
0 -0.5 1.86603
-0.474531 -0.0955894 1.87503
0 0 2
-0.474531 -0.0955894 1.87503
0 0 2
-0.527412 0.417318 1.74006
0.060251 0.474114 1.8784
0.404765 -0.0445124 1.91334
0.583436 0.296235 1.75621
0 0 2
0.060251 0.474114 1.8784
0.517007 -0.414468 1.74895
0.404765 -0.0445124 1.91334
0 -0.5 1.86603
0 0 2
0.517007 -0.414468 1.74895
0 -0.5 1.86603
0.50793 -0.774919 1.37618
0 -0.866025 1.5
0.50793 -0.774919 1.37618
0 -0.866025 1.5
0.374432 -0.927212 1.00889
0 -1 1
0.374432 -0.927212 1.00889
0 -1 1
0.515061 -0.782631 0.650427
0 -0.866025 0.5
0.515061 -0.782631 0.650427
0 -0.866025 0.5
0.538313 -0.432222 0.276534
0 -0.5 0.133975
0.538313 -0.432222 0.276534
0 -0.5 0.133975
0.441491 -0.0616217 0.104853
0 0 0
0.641696 0.275916 0.284391
0.441491 -0.0616217 0.104853
0.182758 0.497321 0.151901
0 0 0
-0.290267 0.609527 0.262286
0.182758 0.497321 0.151901
-0.474591 0.140768 0.131122
0 0 0
-0.290267 0.609527 0.262286
-0.474591 0.140768 0.131122
-0.631059 0.673306 0.614742
-0.81372 0.248689 0.474629
-0.543812 -0.372402 0.247946
-0.878146 -0.186984 0.559663
-0.474591 0.140768 0.131122
-0.81372 0.248689 0.474629
-0.534117 -0.73573 0.583562
-0.818005 -0.505497 0.725517
-0.543812 -0.372402 0.247946
-0.878146 -0.186984 0.559663
-0.543146 -0.837299 1.06263
-0.871687 -0.482414 1.08625
-0.534117 -0.73573 0.583562
-0.818005 -0.505497 0.725517
-0.477877 -0.696922 1.53473
-0.781372 -0.315924 1.53819
-0.543146 -0.837299 1.06263
-0.871687 -0.482414 1.08625
-0.343005 -0.459304 1.81938
-0.474531 -0.0955894 1.87503
-0.477877 -0.696922 1.53473
-0.781372 -0.315924 1.53819
-0.474531 -0.0955894 1.87503
-0.527412 0.417318 1.74006
-0.781372 -0.315924 1.53819
-0.911865 0.166653 1.37514
-0.527412 0.417318 1.74006
0.060251 0.474114 1.8784
-0.446708 0.830754 1.33211
0.140987 0.87068 1.47121
0.583436 0.296235 1.75621
0.653009 0.65648 1.37764
0.060251 0.474114 1.8784
0.140987 0.87068 1.47121
0.875393 -0.100908 1.47276
0.946025 0.322486 1.03224
0.583436 0.296235 1.75621
0.653009 0.65648 1.37764
0.517007 -0.414468 1.74895
0.875393 -0.100908 1.47276
0.404765 -0.0445124 1.91334
0.583436 0.296235 1.75621
0.517007 -0.414468 1.74895
0.50793 -0.774919 1.37618
0.875393 -0.100908 1.47276
0.84546 -0.533232 1.02935
0.84546 -0.533232 1.02935
0.515061 -0.782631 0.650427
0.901546 -0.121746 0.584798
0.538313 -0.432222 0.276534
0.901546 -0.121746 0.584798
0.538313 -0.432222 0.276534
0.641696 0.275916 0.284391
0.441491 -0.0616217 0.104853
0.946025 0.322486 1.03224
0.901546 -0.121746 0.584798
0.69664 0.635158 0.666433
0.641696 0.275916 0.284391
0.69664 0.635158 0.666433
0.641696 0.275916 0.284391
0.27848 0.832116 0.520383
0.182758 0.497321 0.151901
-0.104888 0.863024 0.505847
0.27848 0.832116 0.520383
-0.290267 0.609527 0.262286
0.182758 0.497321 0.151901
-0.104888 0.863024 0.505847
-0.290267 0.609527 0.262286
-0.280275 0.94578 0.835845
-0.631059 0.673306 0.614742
-0.446708 0.830754 1.33211
-0.280275 0.94578 0.835845
-0.831581 0.553192 1.04951
-0.631059 0.673306 0.614742
-0.831581 0.553192 1.04951
-0.631059 0.673306 0.614742
-0.948527 0.261416 0.82123
-0.81372 0.248689 0.474629
-0.781372 -0.315924 1.53819
-0.911865 0.166653 1.37514
-0.871687 -0.482414 1.08625
-0.996574 -0.074865 0.964846
0.946025 0.322486 1.03224
0.69664 0.635158 0.666433
0.653009 0.65648 1.37764
0.561896 0.827207 0.998919
-0.446708 0.830754 1.33211
0.140987 0.87068 1.47121
-0.280275 0.94578 0.835845
0.192311 0.980105 0.950892
0.653009 0.65648 1.37764
0.561896 0.827207 0.998919
0.140987 0.87068 1.47121
0.192311 0.980105 0.950892
-0.911865 0.166653 1.37514
-0.831581 0.553192 1.04951
-0.996574 -0.074865 0.964846
-0.948527 0.261416 0.82123
-0.527412 0.417318 1.74006
-0.446708 0.830754 1.33211
-0.911865 0.166653 1.37514
-0.831581 0.553192 1.04951
0.875393 -0.100908 1.47276
0.84546 -0.533232 1.02935
0.946025 0.322486 1.03224
0.901546 -0.121746 0.584798
0.50793 -0.774919 1.37618
0.374432 -0.927212 1.00889
0.84546 -0.533232 1.02935
0.515061 -0.782631 0.650427
-0.996574 -0.074865 0.964846
-0.948527 0.261416 0.82123
-0.878146 -0.186984 0.559663
-0.81372 0.248689 0.474629
-0.871687 -0.482414 1.08625
-0.996574 -0.074865 0.964846
-0.818005 -0.505497 0.725517
-0.878146 -0.186984 0.559663
0.69664 0.635158 0.666433
0.27848 0.832116 0.520383
0.561896 0.827207 0.998919
0.192311 0.980105 0.950892
-0.104888 0.863024 0.505847
-0.280275 0.94578 0.835845
0.27848 0.832116 0.520383
0.192311 0.980105 0.950892

CELLS 48 240
4	0	1	3	2
4	4	5	7	6
4	8	9	11	10
4	12	13	15	14
4	16	17	19	18
4	20	21	23	22
4	24	25	27	26
4	28	29	31	30
4	32	33	35	34
4	36	37	39	38
4	40	41	43	42
4	44	45	47	46
4	48	49	51	50
4	52	53	55	54
4	56	57	59	58
4	60	61	63	62
4	64	65	67	66
4	68	69	71	70
4	72	73	75	74
4	76	77	79	78
4	80	81	83	82
4	84	85	87	86
4	88	89	91	90
4	92	93	95	94
4	96	97	99	98
4	100	101	103	102
4	104	105	107	106
4	108	109	111	110
4	112	113	115	114
4	116	117	119	118
4	120	121	123	122
4	124	125	127	126
4	128	129	131	130
4	132	133	135	134
4	136	137	139	138
4	140	141	143	142
4	144	145	147	146
4	148	149	151	150
4	152	153	155	154
4	156	157	159	158
4	160	161	163	162
4	164	165	167	166
4	168	169	171	170
4	172	173	175	174
4	176	177	179	178
4	180	181	183	182
4	184	185	187	186
4	188	189	191	190

CELL_TYPES 48
 9 9 9 9 9 9 9 9 9 9 9 9 9 9 9 9 9 9 9 9 9 9 9 9 9 9 9 9 9 9 9 9 9 9 9 9 9 9 9 9 9 9 9 9 9 9 9 9
POINT_DATA 192
SCALARS level double 1
LOOKUP_TABLE default
0 0 0 0 0 0 0 0 0 0 0 0 0 0 0 0 0 0 0 0 0 0 0 0 0 0 0 0 0 0 0 0 0 0 0 0 0 0 0 0 0 0 0 0 0 0 0 0 0 0 0 0 0 0 0 0 0 0 0 0 0 0 0 0 0 0 0 0 0 0 0 0 0 0 0 0 0 0 0 0 0 0 0 0 0 0 0 0 0 0 0 0 0 0 0 0 0 0 0 0 0 0 0 0 0 0 0 0 0 0 0 0 0 0 0 0 0 0 0 0 0 0 0 0 0 0 0 0 0 0 0 0 0 0 0 0 0 0 0 0 0 0 0 0 0 0 0 0 0 0 0 0 0 0 0 0 0 0 0 0 0 0 0 0 0 0 0 0 0 0 0 0 0 0 0 0 0 0 0 0 0 0 0 0 0 0 0 0 0 0 0 0 
SCALARS manifold double 1
LOOKUP_TABLE default
-1 -1 -1 -1 -1 -1 -1 -1 -1 -1 -1 -1 -1 -1 -1 -1 -1 -1 -1 -1 -1 -1 -1 -1 -1 -1 -1 -1 -1 -1 -1 -1 -1 -1 -1 -1 -1 -1 -1 -1 -1 -1 -1 -1 -1 -1 -1 -1 -1 -1 -1 -1 -1 -1 -1 -1 -1 -1 -1 -1 -1 -1 -1 -1 -1 -1 -1 -1 -1 -1 -1 -1 -1 -1 -1 -1 -1 -1 -1 -1 -1 -1 -1 -1 -1 -1 -1 -1 -1 -1 -1 -1 -1 -1 -1 -1 -1 -1 -1 -1 -1 -1 -1 -1 -1 -1 -1 -1 -1 -1 -1 -1 -1 -1 -1 -1 -1 -1 -1 -1 -1 -1 -1 -1 -1 -1 -1 -1 -1 -1 -1 -1 -1 -1 -1 -1 -1 -1 -1 -1 -1 -1 -1 -1 -1 -1 -1 -1 -1 -1 -1 -1 -1 -1 -1 -1 -1 -1 -1 -1 -1 -1 -1 -1 -1 -1 -1 -1 -1 -1 -1 -1 -1 -1 -1 -1 -1 -1 -1 -1 -1 -1 -1 -1 -1 -1 -1 -1 -1 -1 -1 -1 
SCALARS material double 1
LOOKUP_TABLE default
1 1 1 1 1 1 1 1 1 1 1 1 1 1 1 1 1 1 1 1 1 1 1 1 1 1 1 1 1 1 1 1 1 1 1 1 1 1 1 1 1 1 1 1 1 1 1 1 1 1 1 1 1 1 1 1 1 1 1 1 1 1 1 1 1 1 1 1 1 1 1 1 1 1 1 1 1 1 1 1 1 1 1 1 1 1 1 1 1 1 1 1 1 1 1 1 1 1 1 1 1 1 1 1 1 1 1 1 1 1 1 1 1 1 1 1 1 1 1 1 1 1 1 1 1 1 1 1 1 1 1 1 1 1 1 1 1 1 1 1 1 1 1 1 1 1 1 1 1 1 1 1 1 1 1 1 1 1 1 1 1 1 1 1 1 1 1 1 1 1 1 1 1 1 1 1 1 1 1 1 1 1 1 1 1 1 1 1 1 1 1 1 
SCALARS subdomain double 1
LOOKUP_TABLE default
0 0 0 0 0 0 0 0 0 0 0 0 0 0 0 0 0 0 0 0 0 0 0 0 0 0 0 0 0 0 0 0 0 0 0 0 0 0 0 0 0 0 0 0 0 0 0 0 0 0 0 0 0 0 0 0 0 0 0 0 0 0 0 0 0 0 0 0 0 0 0 0 0 0 0 0 0 0 0 0 0 0 0 0 0 0 0 0 0 0 0 0 0 0 0 0 0 0 0 0 0 0 0 0 0 0 0 0 0 0 0 0 0 0 0 0 0 0 0 0 0 0 0 0 0 0 0 0 0 0 0 0 0 0 0 0 0 0 0 0 0 0 0 0 0 0 0 0 0 0 0 0 0 0 0 0 0 0 0 0 0 0 0 0 0 0 0 0 0 0 0 0 0 0 0 0 0 0 0 0 0 0 0 0 0 0 0 0 0 0 0 0 
SCALARS level_subdomain double 1
LOOKUP_TABLE default
0 0 0 0 0 0 0 0 0 0 0 0 0 0 0 0 0 0 0 0 0 0 0 0 0 0 0 0 0 0 0 0 0 0 0 0 0 0 0 0 0 0 0 0 0 0 0 0 0 0 0 0 0 0 0 0 0 0 0 0 0 0 0 0 0 0 0 0 0 0 0 0 0 0 0 0 0 0 0 0 0 0 0 0 0 0 0 0 0 0 0 0 0 0 0 0 0 0 0 0 0 0 0 0 0 0 0 0 0 0 0 0 0 0 0 0 0 0 0 0 0 0 0 0 0 0 0 0 0 0 0 0 0 0 0 0 0 0 0 0 0 0 0 0 0 0 0 0 0 0 0 0 0 0 0 0 0 0 0 0 0 0 0 0 0 0 0 0 0 0 0 0 0 0 0 0 0 0 0 0 0 0 0 0 0 0 0 0 0 0 0 0 
